LAMMPS (15 Jun 2023)
# Checking the thermodynamic properties of LJ fluid

variable        seed equal 1
variable        w index 10      # Warmup Timesteps
variable        t index 50000	# Main Run Timesteps
variable        m index 100       # Main Run Timestep Multiplier
variable        dt equal 0.01

# model parameters
variable        cutoff equal 7.18

# thermodynamics
variable        targetP equal 0.064068
# variable        targetP equal 0.06
variable        targetT equal 1.1476
variable        targetRho equal 0.589
# box
variable L equal 2.5*${cutoff}
variable L equal 2.5*7.18
variable hL equal $L*0.5
variable hL equal 17.95*0.5
variable N equal floor($L*$L*$L*${targetRho})
variable N equal floor(17.95*$L*$L*${targetRho})
variable N equal floor(17.95*17.95*$L*${targetRho})
variable N equal floor(17.95*17.95*17.95*${targetRho})
variable N equal floor(17.95*17.95*17.95*0.589)
# variable        p index 0       # Use Power Measurement

variable	x index 4
variable	y index 2
variable	z index 2
variable        rr equal floor($t*$m)
variable        rr equal floor(50000*$m)
variable        rr equal floor(50000*100)

units lj
atom_style	   atomic

region      box block -${hL} ${hL} -${hL} ${hL} -${hL} ${hL}
region      box block -8.975 ${hL} -${hL} ${hL} -${hL} ${hL}
region      box block -8.975 8.975 -${hL} ${hL} -${hL} ${hL}
region      box block -8.975 8.975 -8.975 ${hL} -${hL} ${hL}
region      box block -8.975 8.975 -8.975 8.975 -${hL} ${hL}
region      box block -8.975 8.975 -8.975 8.975 -8.975 ${hL}
region      box block -8.975 8.975 -8.975 8.975 -8.975 8.975
create_box 1 box
Created orthogonal box = (-8.975 -8.975 -8.975) to (8.975 8.975 8.975)
  1 by 2 by 2 MPI processor grid

create_atoms 1 random $N ${seed} box
create_atoms 1 random 3406 ${seed} box
create_atoms 1 random 3406 1 box
Created 3406 atoms
  using lattice units in orthogonal box = (-8.975 -8.975 -8.975) to (8.975 8.975 8.975)
  create_atoms CPU = 0.001 seconds

pair_style lj/smooth/linear ${cutoff}
pair_style lj/smooth/linear 7.18
# pair_style lj/cut ${cutoff}
# pair_style lj/smooth 4.0 4.3
pair_coeff * * 1.0 1.0
pair_modify shift no tail no

mass		1 1.0

neighbor	0.3 bin
neigh_modify	every 1

minimize 1.0e-4 1.0e-6 100 1000
Generated 0 of 0 mixed pair_coeff terms from geometric mixing rule
Neighbor list info ...
  update: every = 1 steps, delay = 0 steps, check = yes
  max neighbors/atom: 2000, page size: 100000
  master list distance cutoff = 7.48
  ghost atom cutoff = 7.48
  binsize = 3.74, bins = 5 5 5
  1 neighbor lists, perpetual/occasional/extra = 1 0 0
  (1) pair lj/smooth/linear, perpetual
      attributes: half, newton on
      pair build: half/bin/atomonly/newton
      stencil: half/bin/3d
      bin: standard
Per MPI rank memory allocation (min/avg/max) = 6.273 | 6.278 | 6.286 Mbytes
   Step          Temp          E_pair         E_mol          TotEng         Press     
         0   0              1.7457061e+13  0              1.7457061e+13  4.1122774e+13
       100   0             -5.7250516      0             -5.7250516     -1.4417372    
Loop time of 3.20346 on 4 procs for 100 steps with 3406 atoms

98.8% CPU use with 4 MPI tasks x no OpenMP threads

Minimization stats:
  Stopping criterion = max iterations
  Energy initial, next-to-last, final = 
      17457060782598.5  -5.71076704477508  -5.72505157453661
  Force two-norm initial, final = 1.7092167e+19 154.25028
  Force max component initial, final = 1.0050401e+19 23.816841
  Final line search alpha, max atom move = 0.0046183905 0.10999547
  Iterations, force evaluations = 100 174

MPI task timing breakdown:
Section |  min time  |  avg time  |  max time  |%varavg| %total
---------------------------------------------------------------
Pair    | 2.3439     | 2.4135     | 2.486      |   4.2 | 75.34
Neigh   | 0.55218    | 0.57162    | 0.58845    |   1.7 | 17.84
Comm    | 0.11518    | 0.20461    | 0.29373    |  16.7 |  6.39
Output  | 2.1961e-05 | 2.6e-05    | 3.7895e-05 |   0.0 |  0.00
Modify  | 0          | 0          | 0          |   0.0 |  0.00
Other   |            | 0.01371    |            |       |  0.43

Nlocal:          851.5 ave         870 max         833 min
Histogram: 1 0 0 1 0 0 1 0 0 1
Nghost:        10083.5 ave       10151 max        9997 min
Histogram: 1 0 0 0 0 1 1 0 0 1
Neighs:         437749 ave      457213 max      422587 min
Histogram: 2 0 0 0 0 0 0 1 0 1

Total # of neighbors = 1750996
Ave neighs/atom = 514.0916
Neighbor list builds = 35
Dangerous builds = 0
minimize 0.0 1.0e-8 1000 100000
Generated 0 of 0 mixed pair_coeff terms from geometric mixing rule
Per MPI rank memory allocation (min/avg/max) = 6.274 | 6.282 | 6.287 Mbytes
   Step          Temp          E_pair         E_mol          TotEng         Press     
       100   0             -5.7250516      0             -5.7250516     -1.4417372    
      1100   0             -6.7754978      0             -6.7754978     -0.60071121   
Loop time of 53.0865 on 4 procs for 1000 steps with 3406 atoms

90.3% CPU use with 4 MPI tasks x no OpenMP threads

Minimization stats:
  Stopping criterion = max iterations
  Energy initial, next-to-last, final = 
     -5.72505157453657  -6.77535920386559  -6.77549775098712
  Force two-norm initial, final = 154.25028 16.433768
  Force max component initial, final = 23.816841 4.9568201
  Final line search alpha, max atom move = 0.0098391357 0.048770826
  Iterations, force evaluations = 1000 1995

MPI task timing breakdown:
Section |  min time  |  avg time  |  max time  |%varavg| %total
---------------------------------------------------------------
Pair    | 24.746     | 36.049     | 45.242     | 124.7 | 67.91
Neigh   | 4.4498     | 5.4757     | 6.2456     |  28.6 | 10.31
Comm    | 1.2486     | 11.203     | 23.521     | 243.4 | 21.10
Output  | 8.5103e-05 | 9.354e-05  | 0.00011166 |   0.0 |  0.00
Modify  | 0          | 0          | 0          |   0.0 |  0.00
Other   |            | 0.3588     |            |       |  0.68

Nlocal:          851.5 ave        1016 max         578 min
Histogram: 1 0 0 0 0 0 0 2 0 1
Nghost:        10084.2 ave       11109 max        9012 min
Histogram: 1 0 0 0 1 1 0 0 0 1
Neighs:         453938 ave      631841 max      230324 min
Histogram: 1 0 0 0 0 1 1 0 0 1

Total # of neighbors = 1815754
Ave neighs/atom = 533.10452
Neighbor list builds = 281
Dangerous builds = 0

# NPT simulation
reset_timestep	0
timestep ${dt}
timestep 0.01
velocity	all zero linear

thermo_style custom step pe etotal vol temp press density
thermo_modify	norm yes

# output
variable csvname string "output-npt-smooth-linear-T${targetT}-P${targetP}.csv"
output-npt-smooth-linear-T1.1476-P${targetP}.csv
output-npt-smooth-linear-T1.1476-P0.064068.csv
fix extra all print 100 "$(step),$(temp),$(press),$(density)" file ${csvname} screen no title "step,temperature,pressure,density"
fix extra all print 100 "$(step),$(temp),$(press),$(density)" file output-npt-smooth-linear-T1.1476-P0.064068.csv screen no title "step,temperature,pressure,density"

thermo		100

dump mydump all netcdf 1000 tj-lj-P${targetP}-T${targetT}.netcdf  type x y z
dump mydump all netcdf 1000 tj-lj-P0.064068-T${targetT}.netcdf  type x y z
dump mydump all netcdf 1000 tj-lj-P0.064068-T1.1476.netcdf  type x y z

variable dump_time  equal floor(${dt}*100)
variable dump_time  equal floor(0.01*100)
fix		1 all npt temp ${targetT} ${targetT} ${dump_time} iso ${targetP} ${targetP} ${dump_time}
fix		1 all npt temp 1.1476 ${targetT} ${dump_time} iso ${targetP} ${targetP} ${dump_time}
fix		1 all npt temp 1.1476 1.1476 ${dump_time} iso ${targetP} ${targetP} ${dump_time}
fix		1 all npt temp 1.1476 1.1476 1 iso ${targetP} ${targetP} ${dump_time}
fix		1 all npt temp 1.1476 1.1476 1 iso 0.064068 ${targetP} ${dump_time}
fix		1 all npt temp 1.1476 1.1476 1 iso 0.064068 0.064068 ${dump_time}
fix		1 all npt temp 1.1476 1.1476 1 iso 0.064068 0.064068 1
# fix		1 all nvt temp ${targetT} ${targetT} ${dump_time}
run		${rr}
run		5000000
Generated 0 of 0 mixed pair_coeff terms from geometric mixing rule
Per MPI rank memory allocation (min/avg/max) = 5.165 | 5.461 | 5.943 Mbytes
   Step         PotEng         TotEng         Volume          Temp          Press         Density    
         0  -6.7754978     -6.7754978      5783.5349      0             -0.60071121     0.58891319   
       100  -6.818292      -6.7771094      5273.8238      0.027463154   -0.02361315     0.6458312    
       200  -6.832792      -6.7539081      4969.0058      0.052604773    0.027128093    0.68544898   
       300  -6.8472215     -6.7092311      4727.8183      0.092020607    0.024987113    0.72041685   
       400  -6.8544999     -6.6333861      4490.6277      0.14745253     0.034617999    0.75846857   
       500  -6.8380205     -6.5161949      4305.2816      0.21461339     0.047569636    0.7911213    
       600  -6.7805018     -6.3507755      4158.321       0.28656839     0.049636258    0.81908058   
       700  -6.6963642     -6.1339912      4064.2033      0.37502545     0.063231721    0.83804863   
       800  -6.5703062     -5.8627574      3994.0891      0.47183774     0.066489243    0.85276015   
       900  -6.3976589     -5.5401476      3996.3669      0.57184209     0.024186049    0.8522741    
      1000  -6.1770889     -5.1766209      4054.9445      0.66717454    -0.034038499    0.83996217   
      1100  -5.8747685     -4.7814936      4157.7921      0.729064       0.1008018      0.81918478   
      1200  -5.618322      -4.3657149      4294.8538      0.83531662     0.044001793    0.79304212   
      1300  -5.3207233     -3.9417783      4465.9973      0.91956666     0.14751561     0.7626516    
      1400  -5.0141282     -3.525014       4713.4368      0.99303436     0.005554785    0.72261497   
      1500  -4.7292675     -3.1311971      4941.5217      1.0656932      0.12018071     0.68926137   
      1600  -4.4463558     -2.7826622      5234.9867      1.1094548      0.051971161    0.65062247   
      1700  -4.2135583     -2.4991434      5518.3399      1.143279       0.055484822    0.61721461   
      1800  -4.0376305     -2.2791669      5758.2368      1.1726534      0.061825671    0.59150051   
      1900  -3.9145366     -2.1340521      5897.4663      1.1873383      0.076406344    0.57753615   
      2000  -3.8777489     -2.1053451      5963.1997      1.1819496      0.12646063     0.57116987   
      2100  -3.890713      -2.1574158      5928.33        1.1558708      0.13739331     0.57452942   
      2200  -3.9844121     -2.2437157      5815.9471      1.1608051      0.08794692     0.58563119   
      2300  -4.0457062     -2.3470707      5760.339       1.1327562      0.020009244    0.59128465   
      2400  -4.1103324     -2.426897       5677.6427      1.1226199     -0.018634378    0.59989686   
      2500  -4.1719732     -2.4635154      5576.3475      1.1393064      0.029502917    0.61079407   
      2600  -4.1200953     -2.441385       5623.597       1.1194688      0.10979876     0.60566217   
      2700  -4.0833824     -2.3632053      5667.2613      1.1471215      0.14971073     0.60099576   
      2800  -4.0305333     -2.3007348      5742.3675      1.1535377      0.038638487    0.59313515   
      2900  -4.0111682     -2.2615694      5786.9798      1.1667418      0.0068730194   0.58856263   
      3000  -4.0008266     -2.2497229      5787.8699      1.1677453      0.049267884    0.58847211   
      3100  -3.9955276     -2.2580094      5824.5526      1.1586857      0.032683771    0.58476594   
      3200  -4.0481861     -2.2910925      5728.6559      1.1717398      0.12804976     0.59455482   
      3300  -4.0540532     -2.3656308      5789.7551      1.1259455     -0.10744889     0.58828049   
      3400  -4.0883279     -2.4040767      5685.8676      1.1231639      0.037983437    0.59902907   
      3500  -4.1328116     -2.4110719      5630.461       1.1481636      0.01101782     0.60492382   
      3600  -4.1042028     -2.389863       5645.5014      1.1432289      0.092146557    0.60331223   
      3700  -4.0837997     -2.3400425      5682.425       1.1628462      0.030844824    0.59939198   
      3800  -4.0216125     -2.2945853      5724.8218      1.1516895      0.12296886     0.59495302   
      3900  -4.0269848     -2.2803998      5770.1878      1.1647319      0.044450288    0.59027541   
      4000  -4.0011671     -2.3021867      5800.8734      1.1329863      0.12918174     0.58715296   
      4100  -4.0611148     -2.3218075      5698.4192      1.1598787      0.16360236     0.59770963   
      4200  -4.0776824     -2.3437488      5704.4466      1.1562952      0.0048918238   0.59707807   
      4300  -4.0992374     -2.3620102      5663.963       1.1584916      0.083531028    0.60134574   
      4400  -4.070272      -2.3923139      5688.5393      1.1189672      0.028103829    0.59874773   
      4500  -4.1115298     -2.4020209      5678.0955      1.1400073      0.0073099237   0.59984902   
      4600  -4.0732601     -2.3835048      5688.2442      1.1268343      0.054640578    0.59877879   
      4700  -4.0692262     -2.3477817      5710.5851      1.1479667      0.055751553    0.59643625   
      4800  -4.039036      -2.3183755      5749.4767      1.1474439      0.084681969    0.59240174   
      4900  -4.0473385     -2.2853301      5717.2389      1.1750172      0.11184772     0.59574211   
      5000  -4.043777      -2.2783071      5765.9272      1.1773256      0.076234688    0.59071159   
      5100  -3.9913764     -2.2745459      5833.6543      1.1448898      0.031811026    0.58385358   
      5200  -3.9856459     -2.2617616      5782.0875      1.1495937      0.19712214     0.58906062   
      5300  -4.0165899     -2.2592504      5787.2921      1.1719037      0.060532479    0.58853086   
      5400  -4.0101837     -2.2683462      5789.2644      1.1615661      0.056724335    0.58833036   
      5500  -3.9773107     -2.2882209      5858.7552      1.1263906     -0.017133531    0.58135216   
      5600  -4.0347789     -2.2724514      5752.3496      1.17523        0.10959559     0.59210588   
      5700  -3.9912904     -2.2881523      5770.5356      1.1357588      0.17515909     0.59023984   
      5800  -4.0177582     -2.2990141      5784.9215      1.1461659      0.066353334    0.58877204   
      5900  -4.0285654     -2.3041485      5751.7891      1.1499489      0.1057468      0.59216358   
      6000  -4.0093689     -2.3158394      5801.2206      1.1293513      0.045009102    0.58711782   
      6100  -4.0297556     -2.3134579      5771.6076      1.1445345     -0.033922168    0.59013021   
      6200  -4.0685645     -2.3348566      5720.7939      1.1561447      0.036232651    0.59537192   
      6300  -4.0783685     -2.3637294      5699.6311      1.1434284      0.073514652    0.59758253   
      6400  -4.0568043     -2.3865192      5699.5419      1.1138504      0.10238836     0.59759189   
      6500  -4.1355526     -2.3754989      5590.1825      1.1737137      0.15008259     0.60928244   
      6600  -4.0973003     -2.3795055      5639.8268      1.1455328      0.1403053      0.60391926   
      6700  -4.0976791     -2.3800457      5686.8809      1.1454253     -0.026516977    0.59892234   
      6800  -4.097138      -2.3807615      5649.6474      1.1445871      0.13884144     0.60286948   
      6900  -4.0716988     -2.3963455      5669.8582      1.1172302      0.16347454     0.60072049   
      7000  -4.1194161     -2.3817015      5631.5784      1.1588166      0.12962783     0.60480379   
      7100  -4.0575563     -2.3644266      5722.7124      1.1290846      0.051688798    0.59517232   
      7200  -4.0408581     -2.3164898      5763.4907      1.1499165      0.089237095    0.59096131   
      7300  -3.9971846     -2.2542757      5811.578       1.1622805      0.056395913    0.58607146   
      7400  -3.985043      -2.2261021      5814.2977      1.1729717      0.099047354    0.58579732   
      7500  -3.9783359     -2.2384989      5813.3677      1.160232       0.09420594     0.58589103   
      7600  -3.9849041     -2.2848849      5770.9859      1.133679       0.17415261     0.59019379   
      7700  -4.0788149     -2.3356771      5678.3852      1.1624331      0.11637852     0.59981841   
      7800  -4.0868108     -2.385779       5723.3722      1.1343543     -0.050587552    0.59510371   
      7900  -4.1167773     -2.4139711      5689.8641      1.1355375     -0.03798178     0.59860832   
      8000  -4.0903822     -2.4109427      5698.4269      1.1199551      0.026518576    0.59770881   
      8100  -4.1003502     -2.3563145      5666.6334      1.1630319      0.052445369    0.60106235   
      8200  -4.0274242     -2.3128338      5788.9112      1.143396       0.024485508    0.58836626   
      8300  -4.00211       -2.2771607      5824.7995      1.1503039      0.025337206    0.58474116   
      8400  -3.9717335     -2.2808228      5870.4608      1.1276049     -0.033026062    0.58019295   
      8500  -4.0157297     -2.28213        5791.2777      1.1560725      0.10155153     0.58812583   
      8600  -3.9664083     -2.280408       5825.4788      1.1243304      0.17160347     0.58467297   
      8700  -4.0419741     -2.2630712      5722.3998      1.1862836      0.11483004     0.59520483   
      8800  -4.011348      -2.3051154      5783.3218      1.1378225      0.050081706    0.58893489   
      8900  -4.0588383     -2.3271576      5735.6198      1.1547928      0.063716912    0.59383294   
      9000  -4.0853285     -2.351922       5690.2695      1.1559437      0.082538019    0.59856567   
      9100  -4.1070164     -2.386517       5670.3137      1.1473365      0.099810151    0.60067224   
      9200  -4.0959898     -2.4000674      5673.0251      1.1309469      0.03182774     0.60038515   
      9300  -4.1193429     -2.3765317      5629.8137      1.1622154      0.13612436     0.60499338   
      9400  -4.0508678     -2.340723       5721.6783      1.1404314      0.11586677     0.59527989   
      9500  -4.0280413     -2.2917211      5771.5223      1.1578868      0.048589584    0.59013893   
      9600  -4.0065835     -2.2718496      5817.808       1.1568289      0.027818638    0.58544387   
      9700  -3.9905763     -2.2662271      5822.0563      1.1499038      0.008295112    0.58501667   
      9800  -4.0207248     -2.2776221      5770.9196      1.1624097      0.0088610235   0.59020057   
      9900  -4.0321973     -2.3183415      5740.379       1.1429061      0.076615092    0.59334062   
     10000  -4.0944866     -2.3666338      5688.3972      1.1522402      0.0078736487   0.59876269   
     10100  -4.064994      -2.4176423      5705.0095      1.098557       0.074828971    0.59701916   
     10200  -4.1340155     -2.410578       5604.9775      1.1492958      0.059979057    0.60767416   
     10300  -4.1295962     -2.4070747      5621.4423      1.1486849      0.042103001    0.60589432   
     10400  -4.105017      -2.3847999      5633.2556      1.1471482      0.08541204     0.60462373   
     10500  -4.0640894     -2.334535       5677.9761      1.1533749      0.102083       0.59986163   
     10600  -4.0229068     -2.2851527      5717.1694      1.1588429      0.14271666     0.59574935   
     10700  -3.9761803     -2.2783166      5831.046       1.1322415      0.068901605    0.58411476   
     10800  -3.986664      -2.2803154      5838.1352      1.1378998     -0.03719368     0.58340547   
     10900  -4.0153562     -2.2910217      5778.536       1.1498939      0.043788607    0.58942265   
     11000  -4.0356435     -2.3320452      5753.3539      1.1360658      0.04272418     0.59200252   
     11100  -4.1227369     -2.3708751      5638.3409      1.1682508      0.065520566    0.6040784    
     11200  -4.1101662     -2.4150067      5689.8608      1.1304383     -0.023223962    0.59860867   
     11300  -4.1040398     -2.3964656      5658.8463      1.1387172      0.10558164     0.60188947   
     11400  -4.0601543     -2.3406338      5725.4457      1.1466837      0.066535552    0.59488818   
     11500  -4.0152432     -2.2926073      5792.1731      1.1487612     -0.034214623    0.58803491   
     11600  -4.0126174     -2.2947213      5782.9186      1.1456004     -0.0073803289   0.58897596   
     11700  -4.0435976     -2.3322215      5745.7547      1.1412525      0.062278893    0.59278549   
     11800  -4.0899119     -2.3683093      5666.4427      1.1480721      0.096764322    0.60108258   
     11900  -4.1272535     -2.389569       5636.6995      1.1587965      0.091418017    0.60425431   
     12000  -4.0865115     -2.3943254      5702.0387      1.1284554      0.022824718    0.59733022   
     12100  -4.0770391     -2.3602682      5662.6547      1.14485        0.14668203     0.60148467   
     12200  -4.0698447     -2.3259121      5685.9249      1.1629632      0.11435969     0.59902304   
     12300  -4.035207      -2.2936104      5761.3834      1.1614054      0.074635951    0.59117746   
     12400  -4.0054038     -2.2458548      5778.7497      1.1733772      0.059008343    0.58940086   
     12500  -3.9793537     -2.235354       5834.0623      1.1630079      0.040085914    0.58381276   
     12600  -3.9684892     -2.2567203      5796.2111      1.1415144      0.087766712    0.58762526   
     12700  -4.0252054     -2.3101027      5739.6426      1.1437376      0.10257581     0.59341674   
     12800  -4.0549248     -2.3655504      5707.694       1.1265803      0.13509526     0.59673837   
     12900  -4.0838877     -2.3933261      5685.5143      1.127372       0.056867912    0.5990663    
     13000  -4.1127842     -2.3940134      5636.3556      1.1461837      0.046614476    0.60429118   
     13100  -4.1088189     -2.3770724      5625.7151      1.1548367      0.11763826     0.60543414   
     13200  -4.0608361     -2.3459659      5725.2755      1.1435825      0.087083173    0.59490587   
     13300  -4.0125753     -2.2859211      5773.4449      1.1514409      0.029351089    0.58994241   
     13400  -3.9744939     -2.2448184      5857.7992      1.1534556      0.0098527816   0.58144704   
     13500  -3.9997886     -2.2399778      5803.1043      1.1735517      0.06947334     0.58692724   
     13600  -4.0259004     -2.270338       5791.0959      1.1707186      0.037720647    0.58814429   
     13700  -3.9800237     -2.313445       5848.2949      1.1113788     -0.02974684     0.58239198   
     13800  -4.0317431     -2.3242582      5778.3365      1.1386576      0.0028672154   0.589443     
     13900  -4.041261      -2.3263748      5749.2038      1.1435932      0.024348658    0.59242986   
     14000  -4.0430209     -2.3341719      5738.0826      1.1395673      0.060516895    0.59357807   
     14100  -4.0595356     -2.3309632      5688.8428      1.15272        0.075519042    0.59871579   
     14200  -4.0423144     -2.3499264      5739.9326      1.12859       -0.013132154    0.59338676   
     14300  -4.0745545     -2.3642535      5687.8158      1.1405355      0.064660485    0.59882389   
     14400  -4.0730498     -2.3615088      5690.0485      1.1413625      0.082755407    0.59858892   
     14500  -4.0565546     -2.3425265      5730.468       1.143021       0.026398509    0.59436682   
     14600  -4.0537345     -2.329944       5691.4722      1.1495312      0.10050786     0.59843919   
     14700  -4.0795181     -2.3475983      5685.2961      1.1549523      0.040584779    0.59908928   
     14800  -4.0588405     -2.3621702      5664.8752      1.1314457      0.13981803     0.60124891   
     14900  -4.0624501     -2.3570183      5729.3575      1.1372885      0.018185216    0.59448202   
     15000  -4.0567718     -2.3229086      5702.6993      1.1562483      0.13651454     0.59726102   
     15100  -4.0389919     -2.3027955      5717.7119      1.1578042      0.073295347    0.59569284   
     15200  -4.0022279     -2.2905426      5784.9792      1.1414587      0.067875703    0.58876616   
     15300  -4.0056261     -2.2881609      5835.2295      1.1453131      0.022251803    0.58369598   
     15400  -4.022947      -2.26665        5713.1584      1.1712085      0.18325197     0.59616761   
     15500  -4.0004422     -2.28877        5806.6338      1.1414499      0.0035818491   0.58657048   
     15600  -4.0180642     -2.324883       5801.1896      1.129119       0.023297444    0.58712095   
     15700  -4.0647374     -2.3617486      5691.7664      1.1356593      0.083439627    0.59840825   
     15800  -4.1269513     -2.3836547      5657.7142      1.1625391      0.034229363    0.6020099    
     15900  -4.1025216     -2.3986967      5673.0381      1.1362168      0.027068493    0.60038377   
     16000  -4.113956      -2.3963202      5654.794       1.1454269     -0.022440809    0.60232079   
     16100  -4.0935257     -2.3661727      5652.9266      1.1519069      0.14458975     0.60251976   
     16200  -4.0489712     -2.3270358      5777.885       1.1482941     -0.07008874     0.58948906   
     16300  -4.0237063     -2.2993125      5756.2739      1.1499335      0.064183573    0.59170222   
     16400  -4.0130802     -2.3229319      5790.6268      1.1270965     -0.0029400809   0.58819194   
     16500  -4.0543915     -2.339196       5732.031       1.1437995      0.05742001     0.59420475   
     16600  -4.0696344     -2.3381282      5718.161       1.1546765      0.1241231      0.59564605   
     16700  -4.0717369     -2.3382687      5697.054       1.1559849      0.086820727    0.59785285   
     16800  -4.0815151     -2.3701878      5698.125       1.1412199     -0.015625712    0.59774048   
     16900  -4.1047455     -2.3962318      5679.2432      1.1393436      0.020315449    0.5997278    
     17000  -4.1000808     -2.4039017      5649.8676      1.1311181      0.027599496    0.60284599   
     17100  -4.0877208     -2.3867723      5676.6867      1.1342987      0.04085271     0.59999788   
     17200  -4.0514368     -2.3478658      5776.363       1.1360475     -0.11931068     0.58964439   
     17300  -4.0265067     -2.3076133      5760.814       1.1462654      0.056827682    0.59123589   
     17400  -4.0077798     -2.2800833      5759.4349      1.1521359      0.13878481     0.59137747   
     17500  -4.0264036     -2.270986       5753.6252      1.1706221      0.12525229     0.5919746    
     17600  -4.0341211     -2.3011753      5780.5842      1.1556365     -0.032345316    0.5892138    
     17700  -4.0204085     -2.351844       5739.0035      1.112703       0.11233313     0.59348283   
     17800  -4.0811609     -2.3906654      5694.4077      1.127328      -0.039745191    0.59813069   
     17900  -4.1325359     -2.4083359      5647.3558      1.1498043     -0.0085424368   0.60311412   
     18000  -4.1466325     -2.4003085      5625.7524      1.1645579      0.042158053    0.60543012   
     18100  -4.1029245     -2.3992984      5679.8319      1.1360843      0.045225876    0.59966563   
     18200  -4.1132206     -2.3683014      5656.7863      1.1636211      0.13093604     0.60210865   
     18300  -4.0780469     -2.3146627      5691.064       1.1759347      0.053216802    0.59848211   
     18400  -4.0376452     -2.2793743      5746.6459      1.1725249      0.1366862      0.59269356   
     18500  -4.0281235     -2.245343       5786.7272      1.1888693     -0.010553306    0.58858831   
     18600  -3.9680563     -2.2498308      5825.4189      1.14582        0.093382139    0.58467899   
     18700  -3.9837022     -2.2783493      5780.911       1.1372358      0.097039108    0.58918049   
     18800  -4.0365659     -2.3280262      5752.7668      1.1393609      0.022769494    0.59206294   
     18900  -4.0842978     -2.3511694      5675.2953      1.1557582      0.047860287    0.60014499   
     19000  -4.1023867     -2.3653533      5673.6842      1.1583624      0.033763872    0.6003154    
     19100  -4.1067779     -2.3833909      5648.3552      1.1492621      0.12244868     0.6030074    
     19200  -4.1264218     -2.4122065      5610.0604      1.1431458      0.14085456     0.60712358   
     19300  -4.1597401     -2.3984428      5521.5948      1.174543       0.28992195     0.61685077   
     19400  -4.0602556     -2.3460473      5667.0917      1.1431412      0.17625391     0.60101375   
     19500  -4.0556765     -2.3183233      5741.1338      1.1585756      0.018538535    0.5932626    
     19600  -4.0537788     -2.2985388      5715.0496      1.1705037      0.1156663      0.59597033   
     19700  -4.0260353     -2.3030645      5793.8334      1.1489845     -0.00080844824  0.5878664    
     19800  -4.034231      -2.3252355      5719.1207      1.1396649      0.12599287     0.59554609   
     19900  -4.0704736     -2.3610821      5698.6776      1.139929       0.04902351     0.59768252   
     20000  -4.1057406     -2.3835495      5634.9488      1.1484646      0.1125555      0.60444205   
     20100  -4.1113652     -2.416986       5630.4799      1.1299179      0.11898829     0.60492179   
     20200  -4.1298539     -2.4564767      5602.5993      1.1159124      0.070640315    0.60793211   
     20300  -4.1881014     -2.4969976      5572.3487      1.1277337     -0.031711576    0.61123239   
     20400  -4.1666082     -2.4674128      5554.1385      1.1331296      0.070863912    0.61323642   
     20500  -4.1255124     -2.4003212      5647.2784      1.1504652      0.012262565    0.60312238   
     20600  -4.0995202     -2.3684568      5633.6877      1.1543811      0.13324214     0.60457735   
     20700  -4.0964021     -2.3502501      5641.6825      1.1644432      0.15012319     0.60372061   
     20800  -4.0501028     -2.3458442      5720.6256      1.1365061     -0.0052431948   0.59538943   
     20900  -4.0338287     -2.3287567      5718.2462      1.1370485      0.085369277    0.59563717   
     21000  -4.0322013     -2.3344493      5757.8328      1.1321671      0.041576766    0.59154202   
     21100  -4.0726423     -2.3359527      5691.8195      1.1581331      0.043513072    0.59840268   
     21200  -4.0798762     -2.364452       5722.2294      1.143952      -0.073877702    0.59522256   
     21300  -4.1173381     -2.398745       5668.3895      1.1460652     -0.0075126057   0.60087614   
     21400  -4.1037746     -2.4273855      5691.9526      1.1179209     -0.0072790671   0.59838868   
     21500  -4.1068448     -2.3850829      5663.0615      1.1481783      0.04967667     0.60144147   
     21600  -4.0457531     -2.3349375      5730.8466      1.1408787      0.022325351    0.59432754   
     21700  -4.0361363     -2.3115141      5758.7125      1.1500858      0.13234624     0.59145165   
     21800  -4.0152603     -2.2945981      5797.3486      1.147445      -0.015964115    0.58750995   
     21900  -4.0048156     -2.2947598      5792.9735      1.140372       0.05455583     0.58795366   
     22000  -4.0548506     -2.3515665      5683.9801      1.1358562      0.16467295     0.59922799   
     22100  -4.0718209     -2.3836142      5665.7093      1.1258017      0.19237458     0.60116039   
     22200  -4.0760578     -2.3667826      5700.7116      1.1398514     -0.0074188213   0.59746927   
     22300  -4.0799497     -2.3419762      5690.7548      1.1589893      0.040446973    0.59851463   
     22400  -4.0342087     -2.3053514      5739.6838      1.15291        0.072150653    0.59341248   
     22500  -3.9900822     -2.266797       5816.3139      1.1491942      0.025311229    0.58559425   
     22600  -3.9858069     -2.2531128      5808.5412      1.1554686      0.093963536    0.58637786   
     22700  -4.0043534     -2.2619859      5802.4514      1.1619195      0.11425691     0.58699328   
     22800  -3.9985396     -2.2775711      5820.9374      1.1476493      0.0041820957   0.58512912   
     22900  -4.0233536     -2.2960243      5780.6558      1.1518911      0.040572978    0.5892065    
     23000  -4.0347088     -2.3454647      5763.9498      1.1264935      0.035530289    0.59091424   
     23100  -4.0846394     -2.3651946      5695.7592      1.1466331      0.036114582    0.59798876   
     23200  -4.0833923     -2.3712295      5701.698       1.1417771     -0.0099746479   0.59736591   
     23300  -4.0915993     -2.3393959      5703.2856      1.1684787      0.0059406943   0.59719962   
     23400  -3.9872459     -2.2833349      5815.6415      1.1362743     -0.027324172    0.58566196   
     23500  -3.978467      -2.2731739      5835.8473      1.1371959      0.022626729    0.58363419   
     23600  -4.0063429     -2.292869       5833.4907      1.1426514      0.0037826973   0.58386996   
     23700  -3.9909503     -2.3017597      5798.3481      1.1264579      0.10963758     0.58740868   
     23800  -3.9986667     -2.2846393      5854.9358      1.1430205      0.040394355    0.5817314    
     23900  -3.9732342     -2.2427425      5839.7396      1.1539999      0.09649012     0.58324518   
     24000  -4.0014299     -2.2394934      5785.3106      1.1749693      0.13831605     0.58873244   
     24100  -3.98764       -2.2807984      5849.9059      1.1382285      0.034009594    0.58223159   
     24200  -4.0564056     -2.3059919      5757.391       1.1672852     -0.0020770123   0.59158741   
     24300  -4.0679997     -2.3482071      5719.5936      1.1468651     -0.0033426177   0.59549685   
     24400  -4.0506898     -2.3620665      5711.9915      1.1260795      0.06520982     0.5962894    
     24500  -4.0526849     -2.353752       5707.7141      1.1329545      0.095460606    0.59673627   
     24600  -4.0559965     -2.3322706      5711.1485      1.1494881      0.061292785    0.59637741   
     24700  -3.9769772     -2.2903407      5827.8109      1.1247545      0.12409062     0.584439     
     24800  -3.9973748     -2.2357838      5790.7296      1.1747389      0.056992618    0.5881815    
     24900  -3.9691137     -2.2516834      5857.12        1.1452897      0.014663657    0.58151447   
     25000  -3.9822497     -2.2663988      5830.7408      1.1442365     -0.010530935    0.58414533   
     25100  -4.0262045     -2.3084486      5737.0421      1.1455069      0.022244954    0.59368573   
     25200  -4.0222761     -2.3567707      5765.8212      1.110663       0.057380412    0.59072245   
     25300  -4.055091      -2.3558758      5745.6636      1.1331429      0.013145006    0.59279489   
     25400  -4.0315508     -2.3428065      5773.8636      1.1261602      0.0087415616   0.58989963   
     25500  -4.0113882     -2.2905647      5798.4869      1.1475526      0.08251729     0.58739462   
     25600  -4.0229396     -2.2632339      5805.7934      1.1734817      0.027197838    0.58665539   
     25700  -3.9882853     -2.2808839      5857.5125      1.1386019      0.08399453     0.5814755    
     25800  -4.0350886     -2.2785244      5764.4406      1.1713867      0.066244857    0.59086393   
     25900  -4.0398997     -2.2890858      5754.913       1.1675521      0.10912735     0.59184213   
     26000  -4.0680853     -2.3545547      5724.8623      1.1426893      0.066549378    0.59494881   
     26100  -4.0677267     -2.384255       5740.9895      1.1226441      0.023717385    0.59327752   
     26200  -4.079749      -2.3702518      5668.899       1.1399995      0.045603778    0.60082213   
     26300  -4.0771016     -2.3642353      5659.5499      1.1422462      0.096680317    0.60181464   
     26400  -4.1038738     -2.3792585      5656.0622      1.1500812      0.10120758     0.60218574   
     26500  -4.1198457     -2.4049203      5657.4669      1.1436194      0.073476454    0.60203622   
     26600  -4.0923559     -2.4034566      5686.6328      1.1262635     -0.0016966161   0.59894847   
     26700  -4.0929313     -2.3619772      5673.0446      1.1543083      0.031753559    0.60038308   
     26800  -4.0753568     -2.320218       5682.8897      1.1704362      0.17501618     0.59934297   
     26900  -4.0660007     -2.3083423      5713.0889      1.1721164      0.098079867    0.59617486   
     27000  -4.0102196     -2.3265292      5827.1904      1.1227899     -0.055775326    0.58450123   
     27100  -4.0482595     -2.3774974      5729.802       1.1141685      0.051491499    0.5944359    
     27200  -4.1006011     -2.3975669      5648.0573      1.1356896      0.045428497    0.6030392    
     27300  -4.0994345     -2.3954732      5645.3656      1.1363078      0.075444504    0.60332674   
     27400  -4.0828577     -2.354547       5670.6764      1.1525455      0.016467946    0.60063381   
     27500  -4.044226      -2.3133827      5725.4546      1.1542344      0.02454844     0.59488726   
     27600  -4.0570061     -2.295367       5703.5009      1.1747709      0.11001938     0.59717708   
     27700  -4.0788227     -2.3060489      5714.8567      1.1821963      0.055231576    0.59599044   
     27800  -4.0877949     -2.3516696      5701.7056      1.1577568      0.082185915    0.59736511   
     27900  -4.1174614     -2.3777111      5663.7519      1.1601741     -0.014636138    0.60136815   
     28000  -4.1582492     -2.4132098      5593.3724      1.1637013      0.068138625    0.60893496   
     28100  -4.1265374     -2.4465686      5626.4149      1.1203081      0.042761352    0.60535884   
     28200  -4.1186879     -2.4362963      5631.4583      1.1219238     -0.027830441    0.6048167    
     28300  -4.1590308     -2.4308811      5606.8272      1.1524381      0.035367116    0.60747368   
     28400  -4.1124879     -2.407068       5640.4788      1.1372805      0.12898586     0.60384945   
     28500  -4.0653907     -2.3736075      5690.7746      1.1281867      0.087320193    0.59851255   
     28600  -4.0788521     -2.3509667      5693.9238      1.1522619     -0.0054970871   0.59818152   
     28700  -4.0837703     -2.3428013      5657.6716      1.1609869      0.10160469     0.60201444   
     28800  -4.0738523     -2.363958       5692.4728      1.1402643      0.077230736    0.59833399   
     28900  -4.0814351     -2.4130446      5680.8473      1.1125869      0.10117999     0.59955845   
     29000  -4.1671383     -2.4144857      5589.4153      1.1687782      0.040428806    0.60936607   
     29100  -4.1108049     -2.3873363      5664.8775      1.1493165      0.03690578     0.60124866   
     29200  -4.0411092     -2.319305       5731.298       1.1482066      0.068312357    0.59428074   
     29300  -4.0204143     -2.2978626      5771.7253      1.1487051     -0.011423177    0.59011817   
     29400  -4.0753438     -2.3151664      5669.1043      1.1737963      0.12404176     0.60080038   
     29500  -4.0639313     -2.3532857      5725.8773      1.1407653      0.024523638    0.59484334   
     29600  -4.0558294     -2.3711505      5721.8562      1.1234491      0.066760621    0.59526138   
     29700  -4.072659      -2.36131        5660.6984      1.1412344      0.07719436     0.60169254   
     29800  -4.0149133     -2.3201097      5760.9956      1.1302009      0.11535309     0.59121726   
     29900  -3.9927037     -2.2573349      5803.9076      1.1572523      0.034027255    0.58684601   
     30000  -3.9778144     -2.2584488      5829.1719      1.1465804      0.054901671    0.58430255   
     30100  -4.0137687     -2.2912993      5811.6685      1.1486502     -0.059127173    0.58606233   
     30200  -4.0335101     -2.3401344      5754.4727      1.1292486      0.056763154    0.59188742   
     30300  -4.0582262     -2.3509821      5699.5042      1.138497       0.13095173     0.59759584   
     30400  -4.0441244     -2.3646553      5734.4661      1.1199749      0.065264978    0.59395241   
     30500  -4.1191071     -2.3782584      5675.3812      1.1609067      0.047182471    0.6001359    
     30600  -4.1110429     -2.423021       5667.3885      1.1256784      0.023457304    0.60098227   
     30700  -4.1957777     -2.4637055      5532.4201      1.1550539      0.19199368     0.61564377   
     30800  -4.1630934     -2.4685336      5607.4106      1.1300383      0.0018423979   0.60741049   
     30900  -4.1230235     -2.394875       5624.9183      1.1524373      0.094789608    0.60551991   
     31000  -4.074767      -2.3756623      5707.6395      1.1330691     -0.0083700634   0.59674407   
     31100  -4.0459962     -2.3498913      5736.7914      1.1310686      0.026538719    0.59371167   
     31200  -4.0323861     -2.3221582      5787.3865      1.1404867     -0.0027037856   0.58852126   
     31300  -4.0267699     -2.2857807      5753.1911      1.1610003      0.079093107    0.59201927   
     31400  -4.0106537     -2.2608529      5793.5847      1.1668765      0.0072751224   0.58789164   
     31500  -4.0074546     -2.2479156      5779.853       1.1733705      0.14059107     0.58928834   
     31600  -4.0035825     -2.2623692      5809.2886      1.1611498      0.063791946    0.58630242   
     31700  -4.0058185     -2.2887915      5779.3451      1.1450209      0.14548927     0.58934013   
     31800  -4.04082       -2.3441795      5751.4087      1.1314258      0.065324443    0.59220274   
     31900  -4.0747464     -2.3691342      5703.3736      1.1374087      0.05944448     0.59719041   
     32000  -4.0808756     -2.3772328      5695.4971      1.1360954     -0.027855227    0.59801628   
     32100  -4.110007      -2.3646209      5626.4544      1.1639324      0.026663079    0.6053546    
     32200  -4.0879102     -2.402904       5656.1655      1.1236673      0.074207204    0.60217474   
     32300  -4.1096223     -2.4335043      5648.0272      1.1177402      0.0573         0.60304242   
     32400  -4.1334818     -2.3986151      5645.1316      1.1569175      0.038650817    0.60335174   
     32500  -4.0487162     -2.3549567      5729.1551      1.1295046      0.099969677    0.59450302   
     32600  -4.0796303     -2.3264806      5705.3055      1.1691097      0.057197958    0.59698819   
     32700  -4.0261662     -2.3344644      5775.2698      1.1281324      0.058184003    0.58975599   
     32800  -4.0346604     -2.3159481      5762.4093      1.1461447      0.067756377    0.59107221   
     32900  -4.0252125     -2.2623411      5766.7711      1.1755928      0.095276191    0.59062514   
     33000  -3.9826199     -2.2314972      5828.9139      1.167758       0.025098199    0.58432841   
     33100  -3.994066      -2.2458576      5762.6955      1.1658145      0.12466046     0.59104285   
     33200  -3.9654301     -2.2763386      5846.4954      1.1263917      0.087457049    0.58257123   
     33300  -4.000794      -2.2762223      5791.6226      1.1500521      0.056180617    0.5880908    
     33400  -4.0009308     -2.310949       5786.501       1.1269854      0.045283899    0.58861132   
     33500  -4.0758507     -2.342974       5674.3904      1.1555904      0.05639914     0.60024069   
     33600  -4.0612608     -2.3826699      5735.6365      1.1193893     -0.02011026     0.59383121   
     33700  -4.0995277     -2.3834559      5684.5992      1.1443839     -0.010041993    0.59916274   
     33800  -4.104682      -2.3693498      5659.4793      1.1572279      0.10574582     0.60182215   
     33900  -4.0961668     -2.34325        5724.0963      1.1689544     -0.031529938    0.59502843   
     34000  -4.049674      -2.2897612      5759.7698      1.1736198      0.0024792083   0.59134307   
     34100  -4.0054594     -2.2861335      5783.0365      1.1465539      0.023941784    0.58896394   
     34200  -4.0189097     -2.3047879      5775.9453      1.1430835      0.04078582     0.58968703   
     34300  -4.0102012     -2.3211313      5794.228       1.1263772      0.044532596    0.58782637   
     34400  -4.0326636     -2.3161982      5735.5237      1.1446463      0.12471179     0.5938429    
     34500  -4.0413847     -2.3093713      5738.5127      1.1550147     -0.0029903867   0.59353359   
     34600  -4.0512278     -2.2926174      5673.9928      1.1727513      0.17533691     0.60028275   
     34700  -4.0003789     -2.324059       5768.6268      1.1178748      0.10435708     0.59043515   
     34800  -4.0395679     -2.3263999      5769.0739      1.1424474     -0.044022613    0.59038939   
     34900  -4.0199478     -2.3268072      5771.3284      1.1290919      0.0013795339   0.59015876   
     35000  -4.0342853     -2.3147167      5726.7881      1.1467157      0.083266362    0.59474873   
     35100  -4.0179989     -2.2855061      5724.8716      1.1553344      0.18932564     0.59494785   
     35200  -4.0090721     -2.2689087      5797.9592      1.1604496      0.046858747    0.58744808   
     35300  -3.9760123     -2.2554013      5809.0963      1.1474109      0.059672814    0.58632184   
     35400  -4.0092906     -2.2422081      5780.2205      1.178401       0.018891024    0.58925088   
     35500  -3.9959081     -2.2929226      5754.9123      1.1356571      0.061665061    0.59184221   
     35600  -4.0741271     -2.3388766      5696.7759      1.1571734      0.049629668    0.59788204   
     35700  -4.1073029     -2.3579375      5643.6874      1.1665861      0.13458235     0.60350614   
     35800  -4.0763396     -2.3712246      5662.8266      1.1370772      0.13517802     0.60146641   
     35900  -4.0650513     -2.36674        5711.0116      1.13254        0.083451015    0.59639172   
     36000  -4.0347578     -2.3045193      5741.7796      1.1538311      0.11687279     0.59319588   
     36100  -4.0220191     -2.2882904      5754.3051      1.1561586      0.049470436    0.59190466   
     36200  -4.0000896     -2.2978536      5805.8214      1.1351572      0.0006260484   0.58665256   
     36300  -4.0440468     -2.3485249      5764.2868      1.1306799      0.012261374    0.59087969   
     36400  -4.1243658     -2.3765908      5640.4795      1.1655255      0.079394592    0.60384937   
     36500  -4.1206051     -2.3898189      5639.9153      1.1541963      0.064898367    0.60390978   
     36600  -4.1294752     -2.3897525      5631.7684      1.1601558      0.071406973    0.6047834    
     36700  -4.1124371     -2.3663129      5602.3984      1.1644247      0.20913563     0.60795391   
     36800  -4.0615696     -2.3304458      5725.2509      1.1544215      0.00851959     0.59490843   
     36900  -4.0576623     -2.2994237      5709.5252      1.1725033      0.11382617     0.59654698   
     37000  -4.0372129     -2.3078244      5731.7007      1.1532643      0.095492024    0.59423899   
     37100  -4.0697301     -2.3646548      5667.5264      1.1370507      0.13100101     0.60096764   
     37200  -4.1191895     -2.3865647      5632.8331      1.1554225      0.13469182     0.60466908   
     37300  -4.0805356     -2.3894601      5709.5097      1.1277147      0.025195767    0.59654859   
     37400  -4.069224      -2.3657483      5666.6774      1.135984       0.13544967     0.60105769   
     37500  -4.0459421     -2.3607125      5701.931       1.1238163      0.081208765    0.59734149   
     37600  -4.0719033     -2.3476998      5707.4519      1.1498066     -0.023605108    0.59676368   
     37700  -4.0579154     -2.3868638      5742.0133      1.1143616     -0.033001432    0.59317174   
     37800  -4.1161489     -2.4346305      5674.3141      1.1213415     -0.026943836    0.60024875   
     37900  -4.0969387     -2.4315087      5690.7602      1.1106128      0.0076645599   0.59851406   
     38000  -4.1181451     -2.3816231      5680.9872      1.1580214     -0.063282671    0.59954368   
     38100  -4.0363859     -2.3433883      5712.6646      1.1289965      0.10032968     0.59621914   
     38200  -4.0421463     -2.3328966      5725.1373      1.1398345      0.063722467    0.59492023   
     38300  -4.0582598     -2.3437913      5711.8792      1.1433147      0.047966103    0.59630112   
     38400  -4.0749296     -2.3689425      5729.4903      1.1376588     -0.063912011    0.59446824   
     38500  -4.1266887     -2.4252954      5631.8666      1.1345953      0.060187663    0.60477285   
     38600  -4.1474717     -2.4447092      5614.1756      1.1355084      0.052296426    0.60667857   
     38700  -4.1449295     -2.4205219      5611.8815      1.1499427      0.047372782    0.60692657   
     38800  -4.1159785     -2.3908209      5634.351       1.1504428      0.05667444     0.60450618   
     38900  -4.0999851     -2.3365033      5648.0299      1.1759998      0.11586814     0.60304213   
     39000  -4.0339592     -2.3010078      5791.5391      1.1556402     -0.052958598    0.58809929   
     39100  -4.0331587     -2.2898107      5775.8364      1.1625733      0.095870259    0.58969814   
     39200  -4.0150337     -2.2907566      5789.438       1.1498557      0.029161076    0.58831272   
     39300  -4.0457267     -2.3025764      5754.9403      1.1624415     -0.0106632      0.59183933   
     39400  -4.1134956     -2.3499356      5644.7903      1.176052       0.089604086    0.60338822   
     39500  -4.1055576     -2.4069634      5656.3346      1.1327287      0.02335383     0.60215673   
     39600  -4.0747243     -2.3935241      5693.1315      1.1211293      0.10241977     0.59826477   
     39700  -4.0958242     -2.3550085      5672.729       1.1608847      0.067918975    0.60041648   
     39800  -4.0254916     -2.3328006      5754.6956      1.1287921      0.029710293    0.59186449   
     39900  -3.9998177     -2.2949166      5819.8546      1.1369345      0.02139451     0.58523798   
     40000  -4.0096724     -2.2707945      5794.8372      1.1595924     -0.037294891    0.58776458   
     40100  -4.0158257     -2.2877889      5775.4235      1.1523629      0.026192059    0.58974031   
     40200  -4.0489744     -2.3221825      5715.3175      1.1515327      0.089942634    0.5959424    
     40300  -4.0898902     -2.3530796      5660.7257      1.1582138      0.086450963    0.60168964   
     40400  -4.0814983     -2.3706579      5681.5442      1.1408953      0.031066359    0.5994849    
     40500  -4.0854985     -2.373388       5696.7166      1.1417422     -0.0038075666   0.59788826   
     40600  -4.0935741     -2.3735235      5683.2319      1.1470372      0.010839005    0.59930688   
     40700  -4.0933941     -2.3678428      5659.162       1.1507054     -0.027096176    0.60185589   
     40800  -4.0758082     -2.3796198      5701.09        1.1311243     -0.021793202    0.59742962   
     40900  -4.0613964     -2.3856562      5703.6402      1.1174882      0.030950885    0.59716249   
     41000  -4.0705927     -2.370695       5678.5636      1.1335979      0.08759154     0.59979957   
     41100  -4.0500749     -2.325123       5728.9196      1.1503057      0.048417342    0.59452746   
     41200  -4.0205858     -2.288081       5760.9312      1.1553424      0.11391044     0.59122387   
     41300  -4.0283423     -2.2834027      5755.1403      1.1636348      0.068057605    0.59181876   
     41400  -3.9753065     -2.2982543      5845.4442      1.1183632      0.014040862    0.58267599   
     41500  -4.0447411     -2.2876905      5736.4863      1.1717111      0.055050161    0.59374324   
     41600  -4.0663564     -2.3257867      5704.7858      1.1607206      0.1146448      0.59704257   
     41700  -4.1269907     -2.385511       5651.9484      1.1613274      0.090406784    0.60262405   
     41800  -4.1295076     -2.3962902      5600.7502      1.1558176      0.11474432     0.60813282   
     41900  -4.1277308     -2.4078517      5599.0755      1.1469228      0.12877803     0.60831471   
     42000  -4.1236946     -2.4086901      5669.9205      1.1436721     -0.081792971    0.60071389   
     42100  -4.0924122     -2.3643178      5647.221       1.1524013      0.16965022     0.60312851   
     42200  -4.0602779     -2.3272743      5732.4949      1.1556751     -0.017549455    0.59415665   
     42300  -3.9904286     -2.3044998      5822.0303      1.1242826      0.02830986     0.58501928   
     42400  -3.990896      -2.2760975      5815.7331      1.1435348      0.064310494    0.58565274   
     42500  -4.0287316     -2.270754       5791.3478      1.1723293      0.043100555    0.58811872   
     42600  -4.029377      -2.2787175      5740.0985      1.1674491      0.085891367    0.59336961   
     42700  -4.0237063     -2.3214955      5741.3408      1.1351405      0.11539027     0.59324121   
     42800  -4.0809761     -2.3611224      5686.6094      1.1469059      0.059433593    0.59895093   
     42900  -4.0981668     -2.3663392      5630.9879      1.1548908      0.16990676     0.60486722   
     43000  -4.0997268     -2.3750482      5667.6177      1.1501234      0.10079139     0.60095797   
     43100  -4.0996378     -2.3466911      5661.1659      1.1689743      0.075699826    0.60164285   
     43200  -4.0256271     -2.3011215      5744.8127      1.150008       0.11651918     0.59288269   
     43300  -3.9364244     -2.2532593      5857.3097      1.1224396      0.044782517    0.58149563   
     43400  -3.976756      -2.2448119      5842.3097      1.1549685      0.018266083    0.58298861   
     43500  -3.9671687     -2.2695347      5864.5674      1.1320884      0.021597476    0.580776     
     43600  -3.987333      -2.2791841      5811.2661      1.1391004      0.094745602    0.58610291   
     43700  -4.0420755     -2.3344503      5706.9019      1.1387511      0.016666148    0.5968212    
     43800  -4.085198      -2.3819833      5696.0599      1.1358099      0.012202204    0.5979572    
     43900  -4.0838506     -2.3767306      5662.2333      1.1384143      0.14004653     0.60152944   
     44000  -4.0355086     -2.3408581      5767.596       1.1300988      0.073444804    0.59054067   
     44100  -4.0707304     -2.3009741      5682.3905      1.1801841      0.16363437     0.59939563   
     44200  -4.0121323     -2.3141631      5733.7767      1.1323119      0.17368463     0.59402383   
     44300  -4.0759066     -2.3272194      5674.7363      1.1661338      0.066055004    0.6002041    
     44400  -4.0899382     -2.3769529      5609.0757      1.1423256      0.23944177     0.60723018   
     44500  -4.0727868     -2.390417       5648.1008      1.1219092      0.16527771     0.60303457   
     44600  -4.0717589     -2.3697437      5680.7277      1.1350101      0.095429023    0.59957107   
     44700  -4.0780066     -2.3383461      5675.1578      1.1601143      0.034588472    0.60015953   
     44800  -4.081125      -2.344149       5652.604       1.1583241      0.15146106     0.60255415   
     44900  -4.0764171     -2.4046033      5672.4852      1.1148699      0.085838377    0.60044229   
     45000  -4.1602614     -2.4288864      5596.2536      1.154589      -0.027696828    0.60862145   
     45100  -4.1330047     -2.4252653      5605.8516      1.1388273      0.11510373     0.60757941   
     45200  -4.1136782     -2.4016861      5644.6525      1.1416632      0.095093234    0.60340296   
     45300  -4.0837202     -2.3768257      5706.8323      1.1382638     -0.012060687    0.59682847   
     45400  -4.0875936     -2.3477912      5697.1922      1.1602089      0.097355363    0.59783835   
     45500  -4.066619      -2.3377525      5705.9479      1.1529162      0.087569195    0.59692098   
     45600  -4.043615      -2.3211901      5765.4708      1.1486205      0.010829162    0.59075835   
     45700  -4.0089755     -2.2963112      5787.6019      1.1421116      0.014639713    0.58849936   
     45800  -3.9772144     -2.2734434      5878.4927      1.1361809     -0.072973646    0.57940022   
     45900  -3.9587557     -2.202743       5888.7261      1.1710189     -0.034936493    0.57839335   
     46000  -3.9642548     -2.2072052      5836.6738      1.1717104      0.10138103     0.58355154   
     46100  -4.000725      -2.251255       5793.3606      1.1666559      0.08795381     0.58791438   
     46200  -4.0257013     -2.2827962      5712.5717      1.162278       0.21217254     0.59622884   
     46300  -4.0431023     -2.3086948      5771.6396      1.1566112      0.060900848    0.59012694   
     46400  -4.0532386     -2.3178181      5706.4228      1.1572868      0.18334014     0.5968713    
     46500  -4.0873085     -2.333109       5663.4629      1.1698098      0.15871308     0.60139884   
     46600  -4.0625338     -2.3883094      5704.7434      1.1164774      0.10490443     0.59704701   
     46700  -4.105594      -2.4510851      5658.3794      1.1033299      0.011518249    0.60193913   
     46800  -4.1240037     -2.4391188      5655.8117      1.1235865     -0.025640557    0.60221242   
     46900  -4.0980146     -2.4087834      5663.5185      1.1264849      0.05524204     0.60139294   
     47000  -4.0837051     -2.3583182      5684.4783      1.1505957      0.084682396    0.59917548   
     47100  -4.0227965     -2.340186       5819.9204      1.1220698     -0.06773907     0.58523137   
     47200  -3.998376      -2.300715       5819.5056      1.1321064      0.010568226    0.58527309   
     47300  -4.0287808     -2.2656033      5735.7706      1.1757969      0.14771575     0.59381734   
     47400  -4.0286525     -2.2779619      5757.4622      1.1674698      0.039369021    0.59158009   
     47500  -4.0256318     -2.3090146      5745.2649      1.1447476      0.10570497     0.59283602   
     47600  -4.0566535     -2.3162747      5738.608       1.1605933      0.098559057    0.59352373   
     47700  -4.0027999     -2.2971958      5792.3709      1.1374033      0.20479334     0.58801483   
     47800  -4.0068843     -2.25515        5784.9786      1.1681658      0.18521756     0.58876622   
     47900  -3.9814198     -2.2442751      5808.7028      1.1584366      0.10915826     0.58636156   
     48000  -4.0141751     -2.255153       5815.4049      1.1730258      0.02629789     0.58568579   
     48100  -3.967575      -2.2691635      5831.8664      1.1326069      0.1520601      0.58403258   
     48200  -4.0011145     -2.2633317      5822.6252      1.1588621      0.0043186295   0.58495952   
     48300  -4.0062541     -2.2983142      5830.7132      1.138961       0.0011491012   0.58414809   
     48400  -4.0560787     -2.336945       5736.4379      1.1464257      0.0032033601   0.59374825   
     48500  -4.0997329     -2.3664426      5660.3589      1.1558662      0.039629373    0.60172863   
     48600  -4.0840605     -2.4049116      5679.0919      1.1197614      0.12575122     0.59974377   
     48700  -4.0921397     -2.3803573      5647.6991      1.1415234      0.14786935     0.60307746   
     48800  -4.0871365     -2.3496245      5683.2123      1.1586815      0.12004553     0.59930895   
     48900  -4.0718027     -2.3453582      5674.8293      1.151301       0.17796792     0.60019427   
     49000  -4.105337      -2.3535401      5668.3254      1.1682076      0.031098165    0.60088294   
     49100  -4.1099657     -2.3662143      5626.3311      1.1628424      0.088371677    0.60536785   
     49200  -4.1022769     -2.3892802      5655.0669      1.1423332      0.082805259    0.60229173   
     49300  -4.0863176     -2.3897872      5689.4538      1.1313524      0.0059170187   0.59865149   
     49400  -4.059632      -2.3661622      5729.1525      1.1293114      0.063715317    0.59450329   
     49500  -4.0691935     -2.3203494      5697.0437      1.1662384      0.048990796    0.59785394   
     49600  -4.0263924     -2.3055325      5774.1964      1.1475769     -0.013867417    0.58986563   
     49700  -4.0110488     -2.3015125      5791.9451      1.1400256      0.093759917    0.58805806   
     49800  -4.0799839     -2.2981404      5687.6346      1.1882445      0.1019026      0.59884297   
     49900  -4.0760545     -2.3322698      5720.2707      1.1628645      0.050786771    0.59542637   
     50000  -4.055495      -2.3710078      5724.1195      1.1233213      0.059259502    0.59502602   
     50100  -4.0833017     -2.3849977      5689.5704      1.1325352      0.048617788    0.59863923   
     50200  -4.0795295     -2.3651407      5654.9212      1.1432616      0.17506824     0.60230725   
     50300  -4.0338468     -2.2934967      5764.0176      1.1605742      0.095585798    0.59090729   
     50400  -4.0068928     -2.2752181      5809.6164      1.1547889      0.092180974    0.58626934   
     50500  -4.0289262     -2.2635103      5751.2         1.1772896      0.10796086     0.59222423   
     50600  -3.9906171     -2.3031756      5843.8174      1.1252914      0.0056659308   0.5828382    
     50700  -4.0518471     -2.3296548      5753.3493      1.1484654      0.026084249    0.592003     
     50800  -4.1165974     -2.3702111      5650.4468      1.1645995      0.081423335    0.60278419   
     50900  -4.1117289     -2.4205075      5693.8218      1.1278121     -0.08542671     0.59819224   
     51000  -4.1793551     -2.4616265      5553.7141      1.1454887      0.077368306    0.61328328   
     51100  -4.2193163     -2.5028291      5533.5968      1.1446609     -0.011565815    0.61551287   
     51200  -4.1931771     -2.4873749      5528.7427      1.1375354      0.090049552    0.61605327   
     51300  -4.1763961     -2.4326328      5539.3352      1.1628503      0.10001091     0.61487523   
     51400  -4.1276464     -2.4164636      5642.0892      1.1411235     -0.014407752    0.6036771    
     51500  -4.119224      -2.382189       5622.9631      1.1583635      0.11451687     0.60573046   
     51600  -4.0627807     -2.3507097      5681.7894      1.1417159      0.15026743     0.59945903   
     51700  -4.0794173     -2.3287382      5659.383       1.1674622      0.14448279     0.60183239   
     51800  -4.0750202     -2.3358587      5684.41        1.1597815      0.059011417    0.59918268   
     51900  -4.0680463     -2.3736595      5716.5935      1.129923       0.023961754    0.59580938   
     52000  -4.1103205     -2.3892583      5641.738       1.1477118      0.091087569    0.60371467   
     52100  -4.1114976     -2.4444359      5659.7422      1.1117008      0.048355942    0.60179419   
     52200  -4.1609647     -2.4472433      5561.3557      1.1428164      0.10688005     0.61244059   
     52300  -4.1261866     -2.4292422      5616.4787      1.1316285      0.015949959    0.60642979   
     52400  -4.0789881     -2.391817       5690.0845      1.125111       0.023619282    0.59858514   
     52500  -4.0394826     -2.3481748      5728.0842      1.1278697      0.052491924    0.59461417   
     52600  -4.0357094     -2.3349453      5772.56        1.1341757     -0.088542908    0.59003285   
     52700  -4.0741479     -2.3230011      5700.1274      1.1677741      0.012907468    0.5975305    
     52800  -4.1098463     -2.3642311      5602.8539      1.1640853      0.15107785     0.60790448   
     52900  -4.1384642     -2.4116158      5607.9281      1.1515704      0.077981854    0.60735444   
     53000  -4.1314159     -2.4045686      5610.827       1.1515696      0.10304249     0.60704063   
     53100  -4.0837007     -2.3801614      5693.1211      1.1360264      0.070131099    0.59826586   
     53200  -4.0401282     -2.3231717      5728.8819      1.1449739      0.11963657     0.59453137   
     53300  -4.0484135     -2.2966128      5720.372       1.1682101      0.01527091     0.59541583   
     53400  -4.0073398     -2.3141463      5793.8101      1.1291272      0.032557314    0.58786877   
     53500  -4.0108189     -2.3347588      5764.1319      1.1177016      0.12202559     0.59089557   
     53600  -4.0390394     -2.3157965      5737.3671      1.149166       0.10085429     0.5936521    
     53700  -3.9887665     -2.2557343      5779.7848      1.1556941      0.15501419     0.58929529   
     53800  -3.9624049     -2.249228       5855.0166      1.1424533      0.035792409    0.58172337   
     53900  -3.967557      -2.269436       5854.0063      1.1324131      0.022423092    0.58182377   
     54000  -4.0382259     -2.3224514      5776.2572      1.1441856      0.037402051    0.58965519   
     54100  -4.0595224     -2.3464246      5747.5287      1.1424006      0.088380712    0.59260252   
     54200  -4.0600481     -2.332125       5773.2352      1.152287      -0.0062356517   0.58996383   
     54300  -4.0340777     -2.29372        5736.9238      1.1605792      0.083028088    0.59369796   
     54400  -4.0071141     -2.2820795      5763.4841      1.1503608      0.073435811    0.59096199   
     54500  -4.0169902     -2.2892659      5791.7396      1.1521545      0.037927757    0.58807892   
     54600  -4.0446648     -2.2964028      5766.4674      1.1658503      0.042201299    0.59065625   
     54700  -4.014374      -2.3247421      5798.0281      1.1267521     -0.016940266    0.5874411    
     54800  -4.0478635     -2.3414871      5768.2187      1.1379183     -0.030191603    0.59047692   
     54900  -4.0632469     -2.3543212      5712.3601      1.1396184      0.070048389    0.59625093   
     55000  -4.0569909     -2.3639755      5710.1325      1.1290084      0.094208685    0.59648353   
     55100  -4.0826733     -2.354391       5688.3242      1.1525266      0.020905549    0.59877037   
     55200  -4.0601691     -2.3295061      5713.2978      1.1541142      0.080807223    0.59615307   
     55300  -4.0503311     -2.2954303      5710.3258      1.1702775      0.12896323     0.59646335   
     55400  -3.9918291     -2.2577032      5797.6871      1.1564235      0.15225326     0.58747565   
     55500  -3.9898107     -2.2334529      5810.1301      1.1712491      0.10514442     0.58621751   
     55600  -3.9796451     -2.2401387      5872.9387      1.1600115     -0.010929211    0.57994816   
     55700  -3.9963285     -2.2777131      5785.8858      1.1460801      0.078851296    0.58867391   
     55800  -4.0520191     -2.3313322      5696.006       1.1474615      0.11759031     0.59796285   
     55900  -4.0715271     -2.368457       5649.3774      1.1357135      0.15792411     0.60289829   
     56000  -4.1033699     -2.3930439      5676.0444      1.1405522      0.0018639067   0.60006577   
     56100  -4.1077412     -2.4171058      5645.5111      1.1274213      0.0060960528   0.60331118   
     56200  -4.1453007     -2.4413351      5592.4297      1.1363107      0.038404633    0.60903761   
     56300  -4.1771202     -2.4803794      5583.9475      1.1314927     -0.010480975    0.60996276   
     56400  -4.1602269     -2.4626202      5558.2952      1.1320702      0.10416643     0.61277781   
     56500  -4.1219908     -2.405352       5609.736       1.144762       0.045165277    0.6071587    
     56600  -4.0678974     -2.3812339      5680.3467      1.1247726      0.079385403    0.59961128   
     56700  -4.0770072     -2.3508897      5687.3314      1.151083       0.06645209     0.5988749    
     56800  -4.0061546     -2.3365687      5831.0185      1.1133842      0.026022079    0.58411751   
     56900  -4.0096784     -2.3022972      5769.8392      1.1385884      0.11349145     0.59031108   
     57000  -3.9957953     -2.2462023      5811.648       1.1667379      0.030849399    0.58606441   
     57100  -3.9576618     -2.2026247      5882.0849      1.1703684      0.049409626    0.57904639   
     57200  -3.9324683     -2.2193683      5877.6588      1.1424021      0.035236203    0.57948243   
     57300  -3.9498495     -2.2506375      5869.4182      1.1331407      0.040699997    0.58029602   
     57400  -4.0044669     -2.273515       5790.943       1.1543068      0.10325554     0.58815982   
     57500  -4.0304843     -2.3095781      5774.3019      1.1476077      0.030320639    0.58985486   
     57600  -4.0461309     -2.3300235      5757.4077      1.1444076      0.032022147    0.59158569   
     57700  -4.0802773     -2.3385348      5685.4734      1.1615027      0.028198191    0.59907061   
     57800  -4.0492264     -2.3589043      5737.391       1.1272123      0.014304125    0.59364962   
     57900  -4.0538324     -2.36678        5720.3324      1.1250319      0.030847814    0.59541994   
     58000  -4.068428      -2.3668961      5705.7173      1.1346878      0.049010989    0.5969451    
     58100  -4.0916089     -2.3561522      5667.2892      1.1573109      0.031016502    0.6009928    
     58200  -4.0356046     -2.3423673      5747.3097      1.1291564      0.053951227    0.59262511   
     58300  -4.0567527     -2.2937887      5702.6738      1.1756545      0.12117046     0.5972637    
     58400  -3.9923814     -2.3017775      5810.0605      1.1274003      0.017487157    0.58622454   
     58500  -4.0445849     -2.3263892      5741.9416      1.1458002      0.092379198    0.59317915   
     58600  -4.0997515     -2.375545       5701.0599      1.1498086      0.052744218    0.59743277   
     58700  -4.1166728     -2.4121733      5661.6513      1.1366667      0.074977945    0.60159127   
     58800  -4.1238011     -2.4078349      5632.6451      1.1443134      0.062034827    0.60468926   
     58900  -4.066758      -2.3489202      5730.5859      1.1455615      0.02529354     0.59435459   
     59000  -4.0493897     -2.285615       5734.6669      1.1761951      0.0016279925   0.59393162   
     59100  -4.0221104     -2.3099787      5755.5014      1.1417564      0.00019529796  0.59178163   
     59200  -4.0583997     -2.3496442      5725.154       1.1395049      0.030508599    0.59491849   
     59300  -4.0953921     -2.3681511      5692.4293      1.1518322     -0.0044852624   0.59833856   
     59400  -4.0884431     -2.3755622      5634.5313      1.142256       0.1939422      0.60448684   
     59500  -4.1224645     -2.3716107      5604.8727      1.1675786      0.19591767     0.60768553   
     59600  -4.0729936     -2.3782251      5699.7945      1.1301775      0.070311821    0.5975654    
     59700  -4.0946049     -2.3515792      5709.6563      1.1623584     -0.045982989    0.59653327   
     59800  -4.0067745     -2.3159876      5820.3607      1.1275223      0.02603513     0.5851871    
     59900  -4.0131889     -2.2693304      5789.0382      1.1629138      0.028057498    0.58835335   
     60000  -3.9823238     -2.2770635      5825.9274      1.1371741      0.050744729    0.58462796   
     60100  -4.0343716     -2.3086781      5778.8532      1.1508002      0.0081384398   0.58939029   
     60200  -4.0635072     -2.3218996      5730.9974      1.1614127      0.10095125     0.59431191   
     60300  -4.0655966     -2.3397223      5729.4594      1.1509208      0.096163009    0.59447144   
     60400  -4.0531534     -2.3433122      5698.4532      1.1402289      0.13698035     0.59770606   
     60500  -4.1174456     -2.3455085      5630.238       1.1816384      0.067151598    0.60494778   
     60600  -4.0693456     -2.3710543      5667.6772      1.1325267      0.13832399     0.60095166   
     60700  -4.0746276     -2.3677932      5721.2666      1.1382238      0.00658658     0.59532272   
     60800  -4.052285      -2.3405681      5740.1053      1.1414797     -0.010735304    0.5933689    
     60900  -4.0091727     -2.307315       5805.9002      1.134905      -0.010684729    0.5866446    
     61000  -4.0499538     -2.284871       5735.1617      1.1770674      0.038524832    0.59388037   
     61100  -4.0186292     -2.3065675      5761.0712      1.1417096      0.050180329    0.5912095    
     61200  -4.046538      -2.3280817      5729.2415      1.145974       0.036939147    0.59449405   
     61300  -4.0170746     -2.3356255      5770.2939      1.1212953     -0.019131969    0.59026456   
     61400  -4.0721864     -2.3344184      5748.5716      1.1588523     -0.043731155    0.59249501   
     61500  -4.0604657     -2.3530355      5739.0502      1.1386212      0.003982639    0.59347799   
     61600  -4.0921419     -2.3739445      5676.5164      1.1458014      0.055459138    0.60001588   
     61700  -4.1209202     -2.4039397      5649.7499      1.1449899      0.064921887    0.60285854   
     61800  -4.1060288     -2.4083672      5667.438       1.1321068     -0.00066778326  0.60097702   
     61900  -4.0985609     -2.3716649      5643.3903      1.1516021      0.073956466    0.60353791   
     62000  -4.0860525     -2.324208       5730.9766      1.174908      -0.055607037    0.59431407   
     62100  -4.0451849     -2.3331586      5774.2107      1.141686      -0.015428043    0.58986417   
     62200  -4.0759597     -2.3379202      5697.3884      1.1590333      0.038117272    0.59781776   
     62300  -4.1124033     -2.3768033      5676.598       1.1574065      0.0041938594   0.60000726   
     62400  -4.1306883     -2.4326092      5657.4663      1.1323852     -0.026964313    0.60203629   
     62500  -4.1273612     -2.4439528      5645.2         1.1226019      0.0060341225   0.60334443   
     62600  -4.1059414     -2.4122758      5668.7164      1.129442       0.029570765    0.60084149   
     62700  -4.0553202     -2.3644403      5722.6544      1.1275843      0.010547549    0.59517835   
     62800  -4.0823324     -2.3464859      5679.1906      1.1575709      0.091465394    0.59973335   
     62900  -4.0501535     -2.3231623      5748.4599      1.1516656      0.08187731     0.59250652   
     63000  -3.9880684     -2.292039       5849.5538      1.1310184      0.053708198    0.58226663   
     63100  -3.9952633     -2.247002       5803.6836      1.1658498      0.072978278    0.58686866   
     63200  -3.9861477     -2.2519941      5853.4888      1.156442      -0.014583001    0.5818752    
     63300  -3.9696228     -2.2711207      5843.6003      1.1326673      0.017655182    0.58285985   
     63400  -4.0163563     -2.2907536      5762.0514      1.1507396      0.11402274     0.59110892   
     63500  -4.0292372     -2.3040635      5768.412       1.1504536      0.058433428    0.59045714   
     63600  -4.029492      -2.3161801      5755.53        1.1425434     -0.019622361    0.59177869   
     63700  -4.0072195     -2.3209742      5797.2518      1.1244937     -0.023918308    0.58751976   
     63800  -3.9960647     -2.2952671      5850.006       1.1341981     -0.021159146    0.58222163   
     63900  -3.9628013     -2.2215039      5880.2021      1.1612058      0.010840856    0.57923179   
     64000  -3.98919       -2.2305454      5807.6001      1.1727741      0.12047812     0.58647289   
     64100  -4.0059185     -2.2712352      5802.5048      1.1567951      0.11828675     0.58698788   
     64200  -4.0155992     -2.2861493      5799.4836      1.1533052      0.056778875    0.58729366   
     64300  -3.9811799     -2.3206477      5843.579       1.1073466     -0.018296889    0.58286197   
     64400  -4.0563851     -2.3591925      5721.6904      1.131794      -0.026481583    0.59527862   
     64500  -4.1590258     -2.4188886      5589.9711      1.1604321      0.059388275    0.60930547   
     64600  -4.1377159     -2.4279803      5625.3535      1.1401585      0.02061726     0.60547306   
     64700  -4.0963078     -2.3993439      5671.7629      1.1316416     -0.022531684    0.60051875   
     64800  -4.0447836     -2.3570773      5737.6832      1.125468       0.082978386    0.59361939   
     64900  -4.0552637     -2.3282341      5698.9338      1.1516912      0.053476096    0.59765565   
     65000  -4.0449181     -2.3378006      5718.9234      1.1384125      0.054178602    0.59556664   
     65100  -4.0571948     -2.3529233      5758.7654      1.1365147     -0.062728443    0.59144621   
     65200  -4.0875902     -2.3698674      5668.5072      1.1454848      0.1301151      0.60086367   
     65300  -4.1408384     -2.3934293      5583.6795      1.1652816      0.1014913      0.60999203   
     65400  -4.1222983     -2.4120496      5634.4972      1.1405006      0.047951247    0.60449049   
     65500  -4.0867647     -2.4013456      5697.3174      1.1239427      0.0017420446   0.59782521   
     65600  -4.0636366     -2.344932       5716.2471      1.1461395      0.039600406    0.59584548   
     65700  -4.0320528     -2.3199902      5770.5679      1.1417102     -0.0088171027   0.59023654   
     65800  -4.0247128     -2.3166553      5816.576       1.1390394     -0.096981793    0.58556787   
     65900  -4.0381083     -2.3038416      5739.0569      1.1565174      0.061872648    0.5934773    
     66000  -3.9721624     -2.2595103      5840.3323      1.1421034      0.065466129    0.583186     
     66100  -3.9431905     -2.2152076      5857.9118      1.1523269      0.041005765    0.58143586   
     66200  -3.9503952     -2.2409473      5863.3391      1.1399667      0.0022033039   0.58089767   
     66300  -4.0120478     -2.275112       5790.1456      1.1582972     -0.020648362    0.58824082   
     66400  -3.9984241     -2.2981768      5753.5419      1.1338311      0.14815419     0.59198317   
     66500  -4.0235006     -2.3081316      5719.385       1.1439152      0.2000662      0.59551858   
     66600  -4.0121386     -2.313576       5784.1314      1.1327076      0.088966913    0.58885246   
     66700  -4.0653943     -2.310246       5691.2457      1.1704425      0.030563602    0.59846301   
     66800  -4.0446411     -2.3291823      5730.9808      1.143975       0.02098012     0.59431363   
     66900  -4.0734915     -2.333235       5684.0117      1.1605117      0.097255671    0.59922467   
     67000  -4.0697078     -2.3480415      5699.3703      1.1481146      0.059872614    0.59760988   
     67100  -4.0551239     -2.3709306      5736.1114      1.1231253      0.055140273    0.59378206   
     67200  -4.1256282     -2.3872047      5652.3806      1.1592894     -0.021001723    0.60257797   
     67300  -4.1323979     -2.3747552      5595.991       1.172106       0.12243309     0.60865001   
     67400  -4.0945763     -2.3650143      5680.7704      1.15338        0.031783218    0.59956656   
     67500  -4.0777361     -2.3473485      5691.3195      1.1539305      0.028159407    0.59845525   
     67600  -4.0891529     -2.349714       5704.8373      1.1599665     -0.033684476    0.59703718   
     67700  -4.0813994     -2.3427334      5660.2175      1.1594511      0.13619607     0.60174366   
     67800  -4.0567558     -2.3242691      5699.7492      1.1553304      0.092280778    0.59757015   
     67900  -4.0391976     -2.2858905      5771.877       1.1692147      0.037302653    0.59010266   
     68000  -3.9687847     -2.2620923      5821.9559      1.1381291      0.091872525    0.58502676   
     68100  -3.9725994     -2.2431342      5798.1097      1.1533154      0.12140114     0.58743283   
     68200  -4.0444385     -2.2849965      5783.0501      1.1733059      0.02734116     0.58896256   
     68300  -4.0443372     -2.3419931      5767.3232      1.1352294      0.055695488    0.5905686    
     68400  -4.0707845     -2.3316004      5679.46        1.1597965      0.14991055     0.5997049    
     68500  -4.0317015     -2.312586       5750.1851      1.1464136      0.056953447    0.59232875   
     68600  -3.9996594     -2.2744221      5811.2231      1.150496      -0.053050143    0.58610725   
     68700  -3.9340216     -2.230958       5899.2894      1.1357092      0.0013633689   0.57735768   
     68800  -3.9175734     -2.1751411      5909.5395      1.1619627      0.078368604    0.57635624   
     68900  -3.9095654     -2.1566851      5959.9062      1.1689301      0.032530988    0.57148551   
     69000  -3.927758      -2.2253097      5875.5937      1.1352989      0.099502271    0.5796861    
     69100  -3.9818313     -2.2756516      5815.3218      1.1377872      0.16675389     0.58569416   
     69200  -4.0245996     -2.2875272      5736.6045      1.1583884      0.14018585     0.59373101   
     69300  -4.0437396     -2.3228805      5757.6915      1.1475763      0.079733445    0.59155653   
     69400  -4.0465517     -2.3637743      5692.5322      1.1221811      0.13664913     0.59832775   
     69500  -4.0736574     -2.3739494      5713.0681      1.1334715     -0.0044461243   0.59617703   
     69600  -4.0824325     -2.3677243      5684.5258      1.1434745      0.040532094    0.59917047   
     69700  -4.0280491     -2.3642314      5724.7086      1.1095375      0.087256372    0.59496478   
     69800  -4.0536971     -2.3486979      5764.0534      1.1369999      0.019449066    0.59090361   
     69900  -4.0450344     -2.3200814      5711.3423      1.1503064      0.15554329     0.59635718   
     70000  -4.0405151     -2.3140416      5747.6284      1.1513204      0.026564686    0.59259224   
     70100  -4.0638179     -2.3312024      5691.6725      1.1554163      0.10867475     0.59841813   
     70200  -4.1624807     -2.4064567      5592.9445      1.1710265      0.071302569    0.60898155   
     70300  -4.0963434     -2.4181738      5658.7595      1.1191083      0.10464898     0.6018987    
[...]
     99100  -4.1503307     -2.4470585      5572.0347      1.1358483      0.04694915     0.61126683   
     99200  -4.1368223     -2.4231108      5604.5641      1.1428099      0.11661755     0.60771899   
     99300  -4.0876483     -2.3725329      5645.7276      1.143746       0.092645635    0.60328805   
     99400  -4.0206334     -2.331108       5746.2747      1.1266811      0.12313798     0.59273184   
     99500  -4.0262316     -2.2998922      5740.5355      1.1512309      0.085850856    0.59332444   
     99600  -4.0164051     -2.296718       5749.7102      1.1467948      0.10932756     0.59237768   
     99700  -4.019254      -2.3123361      5750.9656      1.1382795      0.12224166     0.59224837   
     99800  -4.0474286     -2.3669731      5744.39        1.1206327      0.059749305    0.59292632   
     99900  -4.0691037     -2.3911018      5720.0656      1.1189965     -0.0074320421   0.59544772   
    100000  -4.1098245     -2.3802457      5608.0513      1.1533912      0.15188558     0.6073411    
    100100  -4.0725039     -2.3555184      5665.8896      1.1449931      0.11079054     0.60114126   
    100200  -4.0026236     -2.3039525      5759.1738      1.13278        0.15052828     0.59140428   
    100300  -4.0445931     -2.2934175      5752.2118      1.1677933      0.025698187    0.59212006   
    100400  -4.0969349     -2.3447521      5716.3324      1.1684649     -0.07351941     0.59583659   
    100500  -4.0811386     -2.3689263      5677.94        1.1418101      0.13829799     0.59986544   
    100600  -4.0756591     -2.3712915      5696.1319      1.1365788      0.055937995    0.59794964   
    100700  -4.019305      -2.345599       5771.3628      1.1161317      0.027330201    0.59015524   
    100800  -4.0323867     -2.2884433      5746.7782      1.1629703      0.061134224    0.59267991   
    100900  -4.0236482     -2.2968576      5760.8328      1.1515318      0.05932822     0.59123396   
    101000  -4.0654339     -2.323703       5707.7087      1.161495       0.047534276    0.59673683   
    101100  -4.1047363     -2.3686505      5619.7496      1.1577305      0.14523168     0.60607683   
    101200  -4.1175029     -2.3826627      5630.9958      1.1568998      0.12112697     0.60486638   
    101300  -4.1159697     -2.3837694      5628.4045      1.1551393      0.11053186     0.60514485   
    101400  -4.0816409     -2.3673316      5691.0951      1.1432085      0.012144063    0.59847884   
    101500  -4.0495421     -2.2989401      5729.3705      1.1674107      0.15384226     0.59448067   
    101600  -3.9833051     -2.2681671      5796.4013      1.1437611      0.11010747     0.58760597   
    101700  -4.0011221     -2.2503965      5796.5294      1.1674931      0.11006459     0.58759299   
    101800  -3.9918957     -2.2663117      5837.6079      1.1507272      0.017225362    0.58345817   
    101900  -4.0109459     -2.323965       5807.1899      1.1249842     -0.015664674    0.58651432   
    102000  -4.0927192     -2.3492635      5679.8928      1.1626451     -0.00042881524  0.59965921   
    102100  -4.0815537     -2.372853       5657.8841      1.1394683      0.080147522    0.60199182   
    102200  -4.121237      -2.3939504      5673.2893      1.1518625     -0.08482579     0.60035719   
    102300  -4.0795453     -2.4019721      5695.8448      1.1187106      0.020279932    0.59797978   
    102400  -4.051283      -2.3438048      5702.7464      1.1386531      0.054795621    0.59725608   
    102500  -4.0230739     -2.3037899      5785.35        1.1465259      0.028733597    0.58872842   
    102600  -4.0588904     -2.2982814      5721.5134      1.1740841      0.13626495     0.59529704   
    102700  -4.0452391     -2.3432063      5741.5834      1.1350218     -0.00070998645  0.59321615   
    102800  -4.0470379     -2.3632758      5726.7562      1.1228377      0.0457663      0.59475205   
    102900  -4.089535      -2.3440508      5657.0146      1.1639979      0.14450955     0.60208436   
    103000  -4.0819685     -2.3481685      5676.3326      1.1562061      0.086289633    0.60003531   
    103100  -4.1112846     -2.4021152      5632.5609      1.1397808      0.10212003     0.60469829   
    103200  -4.1554148     -2.4205468      5604.0515      1.1569183      0.057589186    0.60777457   
    103300  -4.1337051     -2.4005299      5620.0121      1.1557895      0.13967902     0.60604852   
    103400  -4.105799      -2.3540768      5627.5586      1.1681577      0.15193632     0.60523581   
    103500  -4.0975567     -2.3445897      5653.9797      1.1689879      0.15011093     0.60240753   
    103600  -4.0990102     -2.3472884      5665.4974      1.1681575      0.054488939    0.60118288   
    103700  -4.1241942     -2.4170732      5625.0802      1.1384149      0.062237594    0.60550248   
    103800  -4.1506591     -2.4533304      5604.8406      1.1318848      0.095573104    0.607689     
    103900  -4.1414019     -2.4203969      5606.3919      1.1476736      0.054516498    0.60752086   
    104000  -4.0909987     -2.3858076      5660.1993      1.137128       0.13104778     0.60174559   
    104100  -4.0629296     -2.3595075      5695.8446      1.1359483      0.025255696    0.5979798    
    104200  -4.0440034     -2.348123       5743.7762      1.1309189      0.0027776044   0.59298967   
    104300  -4.0190816     -2.3276057      5792.9309      1.1279818      0.042946358    0.58795799   
    104400  -4.0504062     -2.2994804      5687.6465      1.1676267      0.16197411     0.59884172   
    104500  -4.0293062     -2.3042649      5775.8496      1.1503653      0.063225502    0.5896968    
    104600  -3.9909664     -2.2996292      5803.8703      1.1278893      0.068365269    0.58684977   
    104700  -4.0197546     -2.2810808      5788.3345      1.1594563      0.035072555    0.58842488   
    104800  -3.977908      -2.269338       5824.489       1.1393812      0.077695202    0.58477233   
    104900  -3.9782639     -2.2255599      5850.2465      1.1688125      0.1230023      0.58219769   
    105000  -3.9242961     -2.205532       5926.7904      1.1461792     -0.006818375    0.57467867   
    105100  -3.9972439     -2.1955267      5794.8208      1.2014976      0.045652119    0.58776624   
    105200  -4.0178341     -2.26919        5728.0219      1.1661051      0.19598556     0.59462064   
    105300  -4.0210645     -2.3030586      5747.3429      1.1456736      0.074055492    0.59262168   
    105400  -4.039366      -2.3244063      5726.5839      1.1436423      0.12738662     0.59476995   
    105500  -4.1219832     -2.3470097      5599.8573      1.1836632      0.12668399     0.60822978   
    105600  -4.1136974     -2.3997453      5627.2114      1.1429704      0.073427845    0.60527315   
    105700  -4.1035314     -2.3991975      5621.9187      1.1365563      0.1125552      0.60584298   
    105800  -4.0910174     -2.3821118      5700.43        1.139605      -0.048050831    0.59749878   
    105900  -4.0389302     -2.3596185      5715.4486      1.1198699      0.03681783     0.59592873   
    106000  -4.0415717     -2.3498268      5754.2372      1.1281612      0.0038005082   0.59191164   
    106100  -4.0450716     -2.338493       5724.0098      1.1380532      0.090308222    0.59503742   
    106200  -4.0450191     -2.3234544      5755.9263      1.1480469     -0.028733378    0.59173795   
    106300  -4.0346865     -2.3029751      5752.2987      1.1548133     -0.0090691738   0.59211111   
    106400  -4.0061996     -2.2728505      5796.2492      1.1559054      0.091342632    0.58762139   
    106500  -3.9867966     -2.2463421      5802.848       1.1606438      0.12453972     0.58695317   
    106600  -4.0157029     -2.2612572      5770.946       1.169974       0.1220841      0.59019787   
    106700  -3.9996086     -2.324117       5796.4833      1.1173224      0.01261811     0.58759766   
    106800  -4.027961      -2.3481023      5784.5063      1.1202347     -0.030452766    0.5888143    
    106900  -4.0622175     -2.3537363      5714.6392      1.139322       0.058303895    0.59601314   
    107000  -4.0763795     -2.333414       5714.4454      1.1623183      0.068236573    0.59603334   
    107100  -4.0349827     -2.2743331      5749.7738      1.1741112      0.05260082     0.59237113   
    107200  -4.0235538     -2.263451       5744.7937      1.1737465      0.16899223     0.59288465   
    107300  -4.0124976     -2.2727881      5810.7066      1.160147       0.0081082656   0.58615935   
    107400  -4.0031238     -2.2861127      5765.1298      1.1450103      0.073927457    0.59079329   
    107500  -4.0619363     -2.3525441      5692.2536      1.1399295      0.044639777    0.59835703   
    107600  -4.1136909     -2.3945602      5655.5563      1.1464237      0.010193552    0.60223961   
    107700  -4.1339697     -2.401591       5600.7093      1.1552583      0.10890776     0.60813726   
    107800  -4.0848878     -2.3894663      5662.6257      1.130613       0.1063849      0.60148775   
    107900  -4.0531819     -2.3305788      5712.8383      1.1487393      0.039347121    0.59620101   
    108000  -4.0362376     -2.3085256      5769.5061      1.1521463     -0.0066958698   0.59034516   
    108100  -4.0384292     -2.2966909      5703.3571      1.1614999      0.15428085     0.59719213   
    108200  -4.0102826     -2.3034317      5776.8113      1.1382348      0.074398019    0.58959863   
    108300  -4.0319316     -2.2735289      5698.2789      1.1726128      0.18695389     0.59772434   
    108400  -3.9831233     -2.2232835      5809.465       1.1735711      0.055874354    0.58628462   
    108500  -3.9506956     -2.2181144      5858.4865      1.1553934      0.1131606      0.58137883   
    108600  -3.965385      -2.2551392      5810.8637      1.1404987      0.18730999     0.5861435    
    108700  -4.0573794     -2.3003246      5734.9564      1.1717139      0.049047171    0.59390163   
    108800  -4.0343732     -2.3270451      5731.1153      1.138553       0.052349505    0.59429968   
    108900  -4.0700996     -2.3288195      5705.2721      1.1611943      0.036041118    0.59699168   
    109000  -4.0969362     -2.3376319      5648.2441      1.173214       0.1047583      0.60301926   
    109100  -4.089799      -2.3797392      5655.7167      1.1403747      0.15375178     0.60222253   
    109200  -4.1235857     -2.4036999      5630.3919      1.1469273      0.051820157    0.60493125   
    109300  -4.1034231     -2.4290552      5614.5593      1.1165731      0.16919265     0.6066371    
    109400  -4.1321179     -2.4436273      5630.2629      1.125991       0.022122461    0.60494511   
    109500  -4.1162612     -2.401141       5651.9867      1.1437493      0.026733261    0.60261996   
    109600  -4.0960057     -2.3556219      5654.2178      1.1605966      0.097814691    0.60238217   
    109700  -4.0557423     -2.3433688      5681.0641      1.1419176      0.17077683     0.59953557   
    109800  -4.0755232     -2.3216012      5654.8168      1.1696247      0.14803725     0.60231836   
    109900  -4.0191683     -2.3227508      5784.2991      1.1312771      0.019248871    0.58883539   
    110000  -4.0371117     -2.3153478      5741.6614      1.1481797      0.10358774     0.59320809   
    110100  -3.9986373     -2.293522       5815.966       1.1370774      0.0529322      0.58562928   
    110200  -4.0319411     -2.2573324      5768.252       1.1834199      0.08237145     0.59047351   
    110300  -4.0188918     -2.2633851      5734.2197      1.1706815      0.22738812     0.59397794   
    110400  -4.0762112     -2.3251702      5717.9893      1.1677035      0.09915274     0.59566394   
    110500  -4.075714      -2.3425574      5676.4863      1.1557771      0.15694145     0.60001907   
    110600  -4.0793276     -2.3565912      5666.8215      1.1488282      0.039697676    0.6010424    
    110700  -4.1145643     -2.3946683      5660.2484      1.146934       0.025939052    0.60174037   
    110800  -4.1100412     -2.4141136      5624.1528      1.1309505      0.13054022     0.60560232   
    110900  -4.1143914     -2.3895976      5633.2615      1.1502003      0.069707665    0.60462309   
    111000  -4.0345093     -2.3214739      5711.8848      1.142359       0.13573053     0.59630054   
    111100  -4.0459503     -2.3066917      5715.0844      1.1598463      0.060490039    0.5959667    
    111200  -4.0604688     -2.3246762      5687.2281      1.157535       0.083664049    0.59888577   
    111300  -4.0830436     -2.3698655      5722.4384      1.1424542     -0.039667584    0.59520081   
    111400  -4.1360458     -2.3898597      5624.2264      1.164466       0.05939496     0.6055944    
    111500  -4.171591      -2.4474817      5584.1961      1.1497437      0.12437272     0.6099356    
    111600  -4.1874741     -2.4892891      5543.2055      1.1324558      0.086271987    0.61444592   
    111700  -4.1992398     -2.4771137      5491.3839      1.1484213      0.16787045     0.62024438   
    111800  -4.1670818     -2.4612557      5550.3413      1.1375514      0.12178905     0.61365596   
    111900  -4.1479841     -2.4336153      5614.5016      1.1432482     -0.029538703    0.60664334   
    112000  -4.1246525     -2.4147031      5619.0363      1.140301       0.098506322    0.60615377   
    112100  -4.1044617     -2.3866797      5644.7185      1.1455243      0.09541371     0.6033959    
    112200  -4.0810921     -2.357804       5717.3547      1.1491962      0.028680864    0.59573005   
    112300  -4.0544014     -2.3264684      5707.0007      1.1522936      0.089766803    0.59681086   
    112400  -4.0441838     -2.3240226      5686.7126      1.1471109      0.11020413     0.59894006   
    112500  -4.0484709     -2.3334151      5725.3083      1.1437063     -0.021246772    0.59490247   
    112600  -4.0559572     -2.3105576      5674.8644      1.1639415      0.15579977     0.60019056   
    112700  -4.0105366     -2.278558       5742.719       1.1549915      0.13506998     0.59309884   
    112800  -3.9829539     -2.2524216      5794.1354      1.154027       0.056019031    0.58783576   
    112900  -4.0220388     -2.2756078      5759.6016      1.1646293      0.1094875      0.59136035   
    113000  -4.0251608     -2.3188373      5773.0035      1.137883       0.057994757    0.58998751   
    113100  -4.0657626     -2.3282684      5711.79        1.1586696     -0.029678239    0.59631044   
    113200  -4.042513      -2.3742107      5738.1827      1.1125281     -0.015951213    0.59356771   
    113300  -4.0784784     -2.3969858      5711.6031      1.1213243      0.050695885    0.59632995   
    113400  -4.0668254     -2.3590694      5716.5889      1.1388384      0.029049907    0.59580986   
    113500  -4.0291571     -2.2913551      5756.0449      1.1588749      0.058307521    0.59172575   
    113600  -3.9763008     -2.2686764      5812.4712      1.1387506      0.047383065    0.58598139   
    113700  -4.009948      -2.2677546      5786.0969      1.1618034      0.052451284    0.58865243   
    113800  -4.0535087     -2.3098613      5710.038       1.162773       0.11088238     0.5964934    
    113900  -4.0800957     -2.3433751      5707.836       1.1581538      0.059826903    0.59672352   
    114000  -4.0525324     -2.3523344      5710.5975      1.1337982      0.10200417     0.59643497   
    114100  -4.0379152     -2.3344571      5755.9728      1.1359723      0.056440207    0.59173317   
    114200  -4.064716      -2.3191511      5719.5444      1.1640517      0.0051740533   0.59550198   
    114300  -4.0245851     -2.3301917      5765.532       1.1299273      0.041548258    0.59075207   
    114400  -4.0316245     -2.3332947      5740.352       1.1325523      0.067556404    0.59334341   
    114500  -4.0680895     -2.3555491      5710.3979      1.1420289      0.083671229    0.5964558    
    114600  -4.1164712     -2.3560774      5615.4732      1.1739405      0.13414245     0.60653837   
    114700  -4.0950399     -2.3613437      5677.3955      1.1561369      0.13105752     0.59992298   
    114800  -4.0931067     -2.3453641      5696.0663      1.1655039      0.083162337    0.59795652   
    114900  -4.0268977     -2.2952658      5769.1615      1.1547603      0.060048482    0.59038042   
    115000  -4.0184803     -2.2641888      5772.7072      1.1698711      0.07807074     0.5900178    
    115100  -3.996164      -2.2798489      5802.4631      1.1445461      0.04974915     0.5869921    
    115200  -3.99737       -2.290742       5743.4995      1.1380861      0.13353427     0.59301825   
    115300  -4.0552052     -2.3278189      5723.2961      1.1519291      0.023335376    0.59511161   
    115400  -4.1163127     -2.3934276      5673.9255      1.1489274     -0.06808457     0.60028987   
    115500  -4.1190789     -2.3954193      5656.1289      1.1494439      0.0046268363   0.60217863   
    115600  -4.1270229     -2.3611614      5632.4597      1.1775867      0.0058563022   0.60470916   
    115700  -4.0605504     -2.348457       5721.2912      1.1417308      0.038137599    0.59532017   
    115800  -4.0251006     -2.3015066      5750.7471      1.1494001      0.076541154    0.59227087   
    115900  -3.9856983     -2.255825       5817.349       1.1535876      0.10322633     0.58549006   
    116000  -4.0070176     -2.2580472      5803.9263      1.1663227      0.064590627    0.58684411   
    116100  -4.0170637     -2.2838393      5808.0286      1.1558223      0.089997075    0.58642962   
    116200  -4.0535165     -2.295162       5754.2506      1.1725806      0.064030356    0.59191026   
    116300  -4.0393342     -2.3128671      5724.9615      1.1513161      0.19105207     0.59493849   
    116400  -4.0584692     -2.3281047      5706.6403      1.1539151      0.092953863    0.59684855   
    116500  -4.0858567     -2.3651366      5650.7821      1.1474836      0.15022276     0.60274842   
    116600  -4.1289636     -2.4189681      5613.5376      1.1403318      0.097882435    0.60674752   
    116700  -4.1686572     -2.4534382      5606.2477      1.1438152     -0.073161849    0.60753648   
    116800  -4.1210042     -2.4491165      5631.0881      1.1149192      0.04435436     0.60485645   
    116900  -4.1044117     -2.4251014      5661.4378      1.119869       0.031945832    0.60161395   
    117000  -4.119815      -2.3919578      5621.6513      1.1522432      0.13283389     0.6058718    
    117100  -4.0786252     -2.3655782      5674.4315      1.1423667      0.067388328    0.60023634   
    117200  -4.0800982     -2.3536116      5684.5556      1.1513291      0.055695737    0.59916733   
    117300  -4.0566463     -2.3477295      5730.5151      1.1396125      0.070647113    0.59436193   
    117400  -4.027087      -2.2993493      5792.1685      1.1521634      0.016928904    0.58803537   
    117500  -3.9701886     -2.248014       5858.3196      1.1484536      0.011002974    0.58139539   
    117600  -3.9626053     -2.2308631      5840.3288      1.1548338      0.050836326    0.58318634   
    117700  -3.971958      -2.2521041      5820.0911      1.146906       0.13710361     0.5852142    
    117800  -4.027528      -2.3132968      5763.5341      1.1431564      0.059767298    0.59095686   
    117900  -3.9970847     -2.3306599      5832.1368      1.1112761      0.0083382065   0.58400551   
    118000  -4.0300271     -2.3040201      5757.4395      1.1510093      0.015798217    0.59158242   
    118100  -4.0179559     -2.3041892      5785.5561      1.1428467      0.045956225    0.58870745   
    118200  -4.0350004     -2.3063103      5739.7282      1.1527985      0.059206872    0.59340789   
    118300  -4.0517674     -2.3569612      5738.5523      1.1302026     -0.0074542246   0.59352949   
    118400  -4.096044      -2.3765317      5656.0195      1.1466782      0.12718275     0.60219029   
    118500  -4.098006      -2.399636       5644.6724      1.1325792      0.10021704     0.60340083   
    118600  -4.1159962     -2.4218443      5631.4043      