LAMMPS (15 Jun 2023)
# Checking the thermodynamic properties of LJ fluid

variable        seed equal 1
variable        w index 10      # Warmup Timesteps
variable        t index 50000	# Main Run Timesteps
variable        m index 100       # Main Run Timestep Multiplier
variable        dt equal 0.01

# model parameters
variable        cutoff equal 4.0

# thermodynamics
variable        targetP equal 0.064068
# variable        targetP equal 0.06
variable        targetT equal 1.1476
variable        targetRho equal 0.589
# box
variable L equal 15.0
variable hL equal $L*0.5
variable hL equal 15*0.5
variable N equal floor($L*$L*$L*${targetRho})
variable N equal floor(15*$L*$L*${targetRho})
variable N equal floor(15*15*$L*${targetRho})
variable N equal floor(15*15*15*${targetRho})
variable N equal floor(15*15*15*0.589)
# variable        p index 0       # Use Power Measurement

variable	x index 4
variable	y index 2
variable	z index 2
variable        rr equal floor($t*$m)
variable        rr equal floor(50000*$m)
variable        rr equal floor(50000*100)

units lj
atom_style	   atomic

region      box block -${hL} ${hL} -${hL} ${hL} -${hL} ${hL}
region      box block -7.5 ${hL} -${hL} ${hL} -${hL} ${hL}
region      box block -7.5 7.5 -${hL} ${hL} -${hL} ${hL}
region      box block -7.5 7.5 -7.5 ${hL} -${hL} ${hL}
region      box block -7.5 7.5 -7.5 7.5 -${hL} ${hL}
region      box block -7.5 7.5 -7.5 7.5 -7.5 ${hL}
region      box block -7.5 7.5 -7.5 7.5 -7.5 7.5
create_box 1 box
Created orthogonal box = (-7.5 -7.5 -7.5) to (7.5 7.5 7.5)
  1 by 2 by 2 MPI processor grid

create_atoms 1 random $N ${seed} box
create_atoms 1 random 1987 ${seed} box
create_atoms 1 random 1987 1 box
Created 1987 atoms
  using lattice units in orthogonal box = (-7.5 -7.5 -7.5) to (7.5 7.5 7.5)
  create_atoms CPU = 0.001 seconds

# pair_style lj/smooth/linear ${cutoff}
pair_style lj/cut ${cutoff}
pair_style lj/cut 4
pair_coeff * * 1.0 1.0
pair_modify shift no

mass		1 1.0

neighbor	0.3 bin
neigh_modify	every 1 delay 4

minimize 1.0e-4 1.0e-6 100 1000
Switching to 'neigh_modify every 1 delay 0 check yes' setting during minimization
Generated 0 of 0 mixed pair_coeff terms from geometric mixing rule
Neighbor list info ...
  update: every = 1 steps, delay = 0 steps, check = yes
  max neighbors/atom: 2000, page size: 100000
  master list distance cutoff = 4.3
  ghost atom cutoff = 4.3
  binsize = 2.15, bins = 7 7 7
  1 neighbor lists, perpetual/occasional/extra = 1 0 0
  (1) pair lj/cut, perpetual
      attributes: half, newton on
      pair build: half/bin/atomonly/newton
      stencil: half/bin/3d
      bin: standard
Per MPI rank memory allocation (min/avg/max) = 4.33 | 4.33 | 4.33 Mbytes
   Step          Temp          E_pair         E_mol          TotEng         Press     
         0   0              7.4119851e+12  0              7.4119851e+12  1.7454951e+13
       100   0             -5.8396253      0             -5.8396253     -1.2534658    
Loop time of 0.341646 on 4 procs for 100 steps with 1987 atoms

98.0% CPU use with 4 MPI tasks x no OpenMP threads

Minimization stats:
  Stopping criterion = max iterations
  Energy initial, next-to-last, final = 
      7411985146271.67  -5.82938193363395  -5.83962525642611
  Force two-norm initial, final = 4.23237e+18 98.144197
  Force max component initial, final = 2.8096384e+18 22.109051
  Final line search alpha, max atom move = 0.005839568 0.12910731
  Iterations, force evaluations = 100 187

MPI task timing breakdown:
Section |  min time  |  avg time  |  max time  |%varavg| %total
---------------------------------------------------------------
Pair    | 0.21177    | 0.21963    | 0.2307     |   1.7 | 64.29
Neigh   | 0.054874   | 0.059403   | 0.062451   |   1.1 | 17.39
Comm    | 0.042445   | 0.056742   | 0.068192   |   4.2 | 16.61
Output  | 1.891e-05  | 2.2118e-05 | 3.0784e-05 |   0.0 |  0.01
Modify  | 0          | 0          | 0          |   0.0 |  0.00
Other   |            | 0.005846   |            |       |  1.71

Nlocal:         496.75 ave         530 max         473 min
Histogram: 1 0 1 1 0 0 0 0 0 1
Nghost:        3092.75 ave        3109 max        3068 min
Histogram: 1 0 0 0 0 0 0 2 0 1
Neighs:          49151 ave       53482 max       45895 min
Histogram: 1 0 1 0 1 0 0 0 0 1

Total # of neighbors = 196604
Ave neighs/atom = 98.945143
Neighbor list builds = 36
Dangerous builds = 0
minimize 0.0 1.0e-8 1000 100000
Switching to 'neigh_modify every 1 delay 0 check yes' setting during minimization
Generated 0 of 0 mixed pair_coeff terms from geometric mixing rule
Per MPI rank memory allocation (min/avg/max) = 4.33 | 4.33 | 4.33 Mbytes
   Step          Temp          E_pair         E_mol          TotEng         Press     
       100   0             -5.8396253      0             -5.8396253     -1.2534658    
      1100   0             -6.7680057      0             -6.7680057     -0.50756576   
Loop time of 4.07897 on 4 procs for 1000 steps with 1987 atoms

97.9% CPU use with 4 MPI tasks x no OpenMP threads

Minimization stats:
  Stopping criterion = max iterations
  Energy initial, next-to-last, final = 
      -5.8396252564261  -6.76782739571764  -6.76800566557923
  Force two-norm initial, final = 98.144197 12.87507
  Force max component initial, final = 22.109051 3.1717946
  Final line search alpha, max atom move = 0.020458683 0.064890741
  Iterations, force evaluations = 1000 1999

MPI task timing breakdown:
Section |  min time  |  avg time  |  max time  |%varavg| %total
---------------------------------------------------------------
Pair    | 1.8449     | 2.5049     | 3.2809     |  32.3 | 61.41
Neigh   | 0.29415    | 0.39236    | 0.4843     |  10.7 |  9.62
Comm    | 0.2544     | 1.1196     | 1.8754     |  54.5 | 27.45
Output  | 1.6997e-05 | 2.0367e-05 | 3.0329e-05 |   0.0 |  0.00
Modify  | 0          | 0          | 0          |   0.0 |  0.00
Other   |            | 0.0621     |            |       |  1.52

Nlocal:         496.75 ave         647 max         368 min
Histogram: 1 0 1 0 0 1 0 0 0 1
Nghost:         2942.5 ave        3160 max        2704 min
Histogram: 1 0 0 1 0 0 0 1 0 1
Neighs:          57779 ave       79880 max       34956 min
Histogram: 1 0 0 0 1 0 1 0 0 1

Total # of neighbors = 231116
Ave neighs/atom = 116.31404
Neighbor list builds = 243
Dangerous builds = 0

# NPT simulation
reset_timestep	0
timestep ${dt}
timestep 0.01
velocity	all zero linear

thermo_style custom step pe etotal vol temp press density
thermo_modify	norm yes

# output
variable csvname string "output-npt-larger-T${targetT}-P${targetP}.csv"
output-npt-larger-T1.1476-P${targetP}.csv
output-npt-larger-T1.1476-P0.064068.csv
fix extra all print 100 "$(step),$(temp),$(press),$(density)" file ${csvname} screen no title "step,temperature,pressure,density"
fix extra all print 100 "$(step),$(temp),$(press),$(density)" file output-npt-larger-T1.1476-P0.064068.csv screen no title "step,temperature,pressure,density"

thermo		100

dump mydump all netcdf 1000 tj-lj-P${targetP}-T${targetT}.netcdf  type x y z
dump mydump all netcdf 1000 tj-lj-P0.064068-T${targetT}.netcdf  type x y z
dump mydump all netcdf 1000 tj-lj-P0.064068-T1.1476.netcdf  type x y z

variable dump_time  equal floor(${dt}*100)
variable dump_time  equal floor(0.01*100)
fix		1 all npt temp ${targetT} ${targetT} ${dump_time} iso ${targetP} ${targetP} ${dump_time}
fix		1 all npt temp 1.1476 ${targetT} ${dump_time} iso ${targetP} ${targetP} ${dump_time}
fix		1 all npt temp 1.1476 1.1476 ${dump_time} iso ${targetP} ${targetP} ${dump_time}
fix		1 all npt temp 1.1476 1.1476 1 iso ${targetP} ${targetP} ${dump_time}
fix		1 all npt temp 1.1476 1.1476 1 iso 0.064068 ${targetP} ${dump_time}
fix		1 all npt temp 1.1476 1.1476 1 iso 0.064068 0.064068 ${dump_time}
fix		1 all npt temp 1.1476 1.1476 1 iso 0.064068 0.064068 1
# fix		1 all nvt temp ${targetT} ${targetT} ${dump_time}
run		${rr}
run		5000000
Generated 0 of 0 mixed pair_coeff terms from geometric mixing rule
Per MPI rank memory allocation (min/avg/max) = 3.22 | 3.223 | 3.225 Mbytes
   Step         PotEng         TotEng         Volume          Temp          Press         Density    
         0  -6.7680057     -6.7680057      3375           0             -0.50756576     0.58874074   
       100  -6.8034937     -6.7680307      3091.462       0.023653941   -0.029378052    0.64273796   
       200  -6.8184753     -6.7457146      2917.3199      0.048531556    0.033007637    0.68110459   
       300  -6.8198888     -6.7055029      2780.4499      0.076295654    0.060576574    0.71463255   
       400  -6.8201286     -6.6360515      2657.8044      0.1227799      0.064856574    0.74760957   
       500  -6.7886249     -6.5277182      2560.5201      0.17402541     0.063349425    0.77601421   
       600  -6.7409241     -6.3715592      2485.0099      0.2463672     -0.0071650648   0.79959439   
       700  -6.6487992     -6.1628307      2411.4911      0.32414213     0.011836764    0.82397151   
       800  -6.5358344     -5.8857032      2346.4718      0.43363906     0.1221742      0.84680327   
       900  -6.3445101     -5.5417757      2325.1266      0.53542576     0.17160529     0.85457713   
      1000  -6.1190189     -5.141753       2354.2395      0.65183863     0.034913454    0.84400928   
      1100  -5.8360016     -4.6947322      2422.2687      0.76122934     0.15761634     0.82030536   
      1200  -5.4933622     -4.2238537      2546.1595      0.8467652      0.060502083    0.78039103   
      1300  -5.1305882     -3.7466364      2695.5998      0.92309913    -0.030565138    0.73712724   
      1400  -4.8309745     -3.2770565      2821.7098      1.0364669      0.11392204     0.70418297   
      1500  -4.465186      -2.8511103      3020.7111      1.0765922      0.13449777     0.65779214   
      1600  -4.1850265     -2.4788118      3208.7123      1.1380492      0.12386619     0.61925154   
      1700  -3.9464469     -2.1855917      3394.2514      1.1744946      0.08161334     0.58540155   
      1800  -3.7759106     -2.0032797      3585.634       1.182349       0.046546146    0.55415583   
      1900  -3.6698726     -1.9114992      3677.4135      1.1728392      0.02856129     0.54032543   
      2000  -3.6420698     -1.8661815      3683.1108      1.1845216      0.10444801     0.53948961   
      2100  -3.6427548     -1.8918829      3681.7647      1.1678357      0.12556443     0.53968685   
      2200  -3.746021      -1.9854609      3611.495       1.1742977      0.070251579    0.55018766   
      2300  -3.8423901     -2.1149602      3515.2107      1.1521998      0.067419771    0.56525772   
      2400  -3.9469231     -2.23231        3461.8232      1.143651      -0.05370266     0.57397501   
      2500  -3.965478      -2.2808842      3429.189       1.123628       0.084627389    0.57943729   
      2600  -3.9393143     -2.2410538      3440.7091      1.1327437      0.064052996    0.57749724   
      2700  -3.8548042     -2.1386662      3482.6295      1.1446681      0.037024711    0.57054591   
      2800  -3.7769595     -2.0464326      3538.9455      1.1542654      0.12252582     0.56146668   
      2900  -3.7257516     -1.9995859      3621.7938      1.1513566     -0.02143539     0.54862317   
      3000  -3.6833694     -1.9764148      3659.3569      1.1385427      0.023308976    0.54299158   
      3100  -3.7628572     -1.9706544      3557.8817      1.1954035      0.17815295     0.55847838   
      3200  -3.7182157     -2.0373386      3590.1201      1.121149       0.11286111     0.55346339   
      3300  -3.8114202     -2.0774694      3537.085       1.1565492      0.15482325     0.56176201   
      3400  -3.8088702     -2.1211964      3548.8821      1.1256824      0.095364334    0.55989461   
      3500  -3.8027961     -2.1243693      3548.0587      1.1195146      0.070651469    0.56002456   
      3600  -3.8496271     -2.0745098      3530.8507      1.1840074      0.084421757    0.5627539    
      3700  -3.7687295     -2.0551351      3596.1477      1.1429715      0.098886052    0.5525357    
      3800  -3.7857975     -1.9994334      3589.0389      1.191509       0.067427879    0.55363011   
      3900  -3.6732402     -1.9716978      3686.5706      1.1349328     -0.0043418084   0.53898331   
      4000  -3.7063761     -1.9544406      3620.6596      1.1685451      0.12083643     0.54879503   
      4100  -3.6997456     -1.9911815      3638.5158      1.1396162      0.038465691    0.54610179   
      4200  -3.7111178     -2.0428215      3692.794       1.1127575     -0.01429967     0.53807496   
      4300  -3.7813103     -2.0337204      3589.8616      1.1656466      0.090930636    0.55350324   
      4400  -3.7360373     -2.0449331      3582.6994      1.1279704      0.19188512     0.55460975   
      4500  -3.7743444     -2.0567974      3635.7238      1.1456079     -0.038379837    0.54652116   
      4600  -3.784912      -2.0543645      3606.4456      1.1542792      0.074754357    0.55095798   
      4700  -3.7457501     -2.0445099      3674.6237      1.1347312      0.033468311    0.54073565   
      4800  -3.745821      -1.9861259      3621.0073      1.1737208      0.10118555     0.54874234   
      4900  -3.6673848     -1.9559934      3717.217       1.1415021      0.074788923    0.53453969   
      5000  -3.6801197     -1.922855       3680.7247      1.1720997      0.12862114     0.53983934   
      5100  -3.6971187     -1.9269559      3668.9404      1.1807027      0.10516264     0.54157326   
      5200  -3.6944856     -1.9711191      3657.2284      1.1494895      0.09880984     0.5433076    
      5300  -3.7226631     -2.0370944      3648.9101      1.1242783      0.044976836    0.54454617   
      5400  -3.7968226     -2.097235       3591.0779      1.1336289     -0.010206331    0.55331576   
      5500  -3.7903057     -2.1277133      3549.8241      1.1089531      0.094511709    0.55974605   
      5600  -3.8493255     -2.123469       3506.6872      1.1511504      0.091072324    0.56663166   
      5700  -3.8701258     -2.1136163      3493.5514      1.171596       0.079045093    0.5687622    
      5800  -3.8334902     -2.1172219      3466.121       1.144755       0.24612399     0.57326332   
      5900  -3.8626056     -2.1345101      3494.2795      1.1526437      0.087403725    0.5686437    
      6000  -3.8368038     -2.1347685      3548.0871      1.1352615      0.10768182     0.56002007   
      6100  -3.8339751     -2.0926653      3541.6276      1.1614577      0.050627474    0.56104149   
      6200  -3.8328333     -2.0597409      3537.1079      1.1826568      0.010788262    0.56175839   
      6300  -3.814448      -2.0650837      3521.0931      1.1668301      0.13203197     0.5643134    
      6400  -3.8398296     -2.0989064      3534.9089      1.1611999     -0.023483563    0.56210784   
      6500  -3.887637      -2.150342       3471.7676      1.1587799      0.10020147     0.57233093   
      6600  -3.9287384     -2.2110726      3443.4331      1.1456871      0.1128747      0.5770404    
      6700  -3.9440382     -2.2310698      3411.0255      1.1425539      0.19679777     0.58252276   
      6800  -3.9136044     -2.1960694      3424.2484      1.1455999      0.20534305     0.58027332   
      6900  -3.8678913     -2.1255189      3490.3555      1.1621665      0.10758377     0.56928298   
      7000  -3.8484953     -2.0567903      3482.3371      1.1950714      0.035842517    0.57059382   
      7100  -3.7617672     -2.0637425      3602.8714      1.1325865      0.028102337    0.55150456   
      7200  -3.7915975     -2.0599239      3568.6092      1.1550304      0.097376874    0.55679955   
      7300  -3.7831961     -2.0434553      3589.9404      1.1604112      0.060876601    0.55349109   
      7400  -3.7383126     -2.0193144      3605.7524      1.1465758      0.037045595    0.55106391   
      7500  -3.7457269     -2.0082585      3607.8292      1.1588955      0.019609176    0.55074669   
      7600  -3.716163      -2.0292577      3622.7146      1.1251697      0.058698397    0.54848373   
      7700  -3.8184485     -2.0485882      3510.8631      1.180501       0.090578495    0.5659577    
      7800  -3.8322785     -2.1090843      3503.7093      1.1493746      0.074269788    0.56711326   
      7900  -3.8722094     -2.1882123      3507.9581      1.12323       -0.093951078    0.56642637   
      8000  -3.9184833     -2.2048719      3427.2993      1.1429828      0.12926004     0.57975678   
      8100  -3.9192282     -2.2024716      3451.3397      1.1450807      0.025404282    0.57571847   
      8200  -3.8644502     -2.1881477      3519.5175      1.1180977      0.037006243    0.56456603   
      8300  -3.832664      -2.1076816      3540.2554      1.1505673      0.05897019     0.56125894   
      8400  -3.8066824     -2.0331144      3532.1346      1.182974       0.21838829     0.56254934   
      8500  -3.7391261     -2.0327176      3599.4833      1.1381785      0.069391099    0.55202368   
      8600  -3.716838      -2.0357036      3658.3663      1.1213206     -0.075092904    0.54313861   
      8700  -3.7742189     -2.019699       3596.4599      1.1702689      0.050056149    0.55248774   
      8800  -3.7885063     -2.0328365      3571.6641      1.1710359      0.047805897    0.5563233    
      8900  -3.7804826     -2.0814052      3579.5077      1.1332886     -0.0019645409   0.55510426   
      9000  -3.8421982     -2.1165282      3499.8083      1.1510259      0.011373009    0.56774538   
      9100  -3.8541976     -2.1642279      3475.2315      1.1272137      0.081024006    0.57176048   
      9200  -3.872571      -2.1895226      3483.132       1.1225973      0.0207454      0.5704636    
      9300  -3.8715215     -2.1808194      3456.6498      1.1277023      0.11418772     0.57483406   
      9400  -3.8067792     -2.1569105      3536.8569      1.1004663      0.031347516    0.56179824   
      9500  -3.8106404     -2.0831517      3497.6047      1.152239       0.17088362     0.56810307   
      9600  -3.7682367     -2.0347779      3563.2676      1.1562211      0.083289726    0.55763424   
      9700  -3.7731663     -2.0224008      3581.8453      1.1677648      0.095001589    0.55474199   
      9800  -3.7669049     -2.0255699      3594.5984      1.1614745      0.0848718      0.55277385   
      9900  -3.7574087     -2.028287       3581.1049      1.1533282      0.073119297    0.55485669   
     10000  -3.7858104     -2.0604591      3554.1589      1.1508133      0.071571421    0.55906336   
     10100  -3.8098218     -2.1078984      3590.0772      1.1351869     -0.056005451    0.55346999   
     10200  -3.8072059     -2.1183068      3566.1018      1.1264997      0.03154305     0.55719105   
     10300  -3.8629386     -2.0847739      3523.0613      1.18604        0.036219128    0.56399814   
     10400  -3.8145365     -2.0645392      3518.066       1.1672523      0.21225108     0.56479895   
     10500  -3.7904602     -2.0705257      3559.9615      1.1472004      0.090316845    0.5581521    
     10600  -3.805674      -2.0898883      3548.3456      1.1444331      0.016687189    0.55997928   
     10700  -3.774108      -2.1028052      3589.0744      1.1147629      0.008579838    0.55362464   
     10800  -3.7907462     -2.0720314      3553.7959      1.1463868     -0.0073456103   0.55912045   
     10900  -3.7371874     -2.054327       3570.1921      1.1224719      0.10961913     0.55655268   
     11000  -3.7556486     -2.0226968      3587.5083      1.1558829      0.01927613     0.55386632   
     11100  -3.7610524     -1.9977284      3585.8593      1.1761413      0.025549815    0.55412101   
     11200  -3.7428493     -2.006744       3561.1476      1.1579863      0.13359243     0.55796619   
     11300  -3.7508534     -2.0455585      3550.1554      1.1374357      0.15001798     0.55969381   
     11400  -3.8013561     -2.082817       3539.9953      1.1462696      0.033951046    0.56130018   
     11500  -3.7897413     -2.093471       3552.1306      1.1314163      0.042220175    0.55938258   
     11600  -3.7935866     -2.0878726      3546.6241      1.1377152      0.11905424     0.56025108   
     11700  -3.8334533     -2.062507       3533.7563      1.1812253     -0.017698215    0.56229119   
     11800  -3.7786713     -2.0536639      3583.6096      1.150584       0.014633121    0.55446888   
     11900  -3.8176819     -2.0578644      3515.1397      1.1738024      0.031905544    0.56526914   
     12000  -3.842076      -2.1355238      3494.4437      1.1382743      0.12687883     0.56861697   
     12100  -3.89305       -2.2020905      3438.0147      1.1278739      0.099646368    0.57794983   
     12200  -3.9516961     -2.2395555      3380.3679      1.1420018      0.12149758     0.58780584   
     12300  -3.9819151     -2.2536965      3394.2432      1.1527259      0.083236377    0.58540295   
     12400  -3.9689642     -2.2411477      3392.2167      1.1524577      0.14995364     0.58575268   
     12500  -3.9783094     -2.2152204      3374.6965      1.1759846      0.2086771      0.58879369   
     12600  -3.8746873     -2.2036063      3486.8827      1.114615       0.0032758638   0.56984997   
     12700  -3.8633273     -2.1330142      3468.6183      1.1541229      0.10471465     0.57285058   
     12800  -3.7476619     -2.0431603      3572.2022      1.1369065      0.15651073     0.55623952   
     12900  -3.7085095     -1.9772929      3657.9046      1.1547255     -0.046011707    0.54320717   
     13000  -3.6961402     -1.9587701      3662.217       1.1588299      0.046333634    0.54256753   
     13100  -3.7015177     -1.9604556      3627.9158      1.1612925      0.058629636    0.54769739   
     13200  -3.73457       -2.006244       3573.4455      1.1527975      0.062085931    0.55604597   
     13300  -3.7602833     -2.0885909      3591.0762      1.1150227     -0.00099574475  0.55331603   
     13400  -3.8599981     -2.1262963      3474.4767      1.1563832      0.12363751     0.57188468   
     13500  -3.8754187     -2.1719283      3460.871       1.1362321      0.14690391     0.57413292   
     13600  -3.9257518     -2.2024504      3445.7341      1.1494461      0.065923317    0.57665505   
     13700  -3.8974544     -2.223157       3453.9549      1.1167603      0.15199858     0.57528255   
     13800  -3.8842119     -2.1848426      3456.9672      1.1334833      0.097012896    0.57478127   
     13900  -3.8580096     -2.1194187      3463.1304      1.1596442      0.17011682     0.57375836   
     14000  -3.8148001     -2.0660198      3508.5137      1.1664406      0.14482734     0.56633667   
     14100  -3.7815966     -2.0551827      3528.0338      1.1515221      0.10266434     0.56320323   
     14200  -3.827355      -2.1023231      3503.5337      1.1506003      0.11727475     0.56714169   
     14300  -3.850705      -2.1615163      3476.7499      1.1266928      0.078924556    0.57151077   
     14400  -3.8874528     -2.1739149      3448.6543      1.1429338      0.12884603     0.57616676   
     14500  -3.8663127     -2.130823       3484.8135      1.1575757      0.087773589    0.57018834   
     14600  -3.8171108     -2.0715955      3508.5115      1.1642628      0.15966058     0.56633704   
     14700  -3.7523265     -2.0421975      3582.0019      1.14066        0.0081723848   0.55471774   
     14800  -3.7622167     -2.0551836      3589.8758      1.1385951     -0.0056986559   0.55350104   
     14900  -3.8132099     -2.0944333      3536.3765      1.146428       0.04671386     0.56187456   
     15000  -3.8568973     -2.1359696      3505.722       1.1478628      0.024618843    0.56678768   
     15100  -3.9095766     -2.153753       3441.6944      1.1711385      0.17138626     0.57733191   
     15200  -3.8905623     -2.1576214      3437.0303      1.1558756      0.22198905     0.57811536   
     15300  -3.8900273     -2.1652574      3462.1725      1.1504256      0.091093703    0.5739171    
     15400  -3.8363308     -2.1660133      3511.4747      1.1141057      0.1730581      0.56585913   
     15500  -3.8177388     -2.1005998      3539.1398      1.1453357     -0.080377024    0.56143586   
     15600  -3.7591702     -2.0656548      3577.5465      1.1295787      0.028600485    0.55540858   
     15700  -3.805779      -2.0385363      3543.7138      1.1787551      0.0066725598   0.5607112    
     15800  -3.7584221     -2.0528982      3580.6404      1.1375885      0.089641001    0.55492866   
     15900  -3.8183143     -2.0776878      3554.3559      1.161002      -0.082100565    0.55903237   
     16000  -3.8136335     -2.1248224      3529.8971      1.1264409      0.09807211     0.56290592   
     16100  -3.8354316     -2.1543836      3546.3982      1.121263       0.04994539     0.56028678   
     16200  -3.8482165     -2.1265006      3527.1019      1.1483886      0.10516275     0.56335203   
     16300  -3.8171866     -2.0548052      3534.4053      1.1755125     -0.024955011    0.56218793   
     16400  -3.8132771     -2.0702059      3533.0933      1.1626326      0.0021201077   0.5623967    
     16500  -3.8514384     -2.1097672      3506.5692      1.1616988     -0.0020222346   0.56665073   
     16600  -3.8325754     -2.1490743      3548.5396      1.1228992     -0.077200609    0.55994866   
     16700  -3.8850995     -2.1378224      3477.9289      1.1654379      0.010985596    0.57131703   
     16800  -3.8359517     -2.1158539      3532.9699      1.1473093      0.042769911    0.56241634   
     16900  -3.7737157     -2.0549422      3574.737       1.1464259      0.039321316    0.55584509   
     17000  -3.7056231     -2.0366673      3658.4537      1.1131974     -0.015408236    0.54312564   
     17100  -3.7436666     -2.0080871      3582.6662      1.1576356      0.037284975    0.55461488   
     17200  -3.7512864     -2.018385       3606.0941      1.1558493      0.011373829    0.5510117    
     17300  -3.8312266     -2.0780513      3527.7543      1.169372      -0.0071034631   0.56324785   
     17400  -3.8329267     -2.1267595      3528.3037      1.1380175     -0.015613087    0.56316014   
     17500  -3.8243983     -2.1193443      3510.652       1.1372751      0.10249027     0.56599173   
     17600  -3.7920885     -2.1004409      3554.1944      1.128333      -0.0075394904   0.55905778   
     17700  -3.7562813     -2.0653784      3587.1617      1.1278362     -0.038699655    0.55391983   
     17800  -3.7427695     -1.991763       3595.1148      1.1679254      0.096685789    0.55269444   
     17900  -3.7091535     -1.9573223      3679.2579      1.1684755     -0.0013141517   0.54005456   
     18000  -3.6993617     -1.9434894      3624.9289      1.1711709      0.18012836     0.54814868   
     18100  -3.6570567     -1.9467064      3670.6283      1.1408077      0.051664304    0.54132423   
     18200  -3.7290804     -1.9736305      3607.5607      1.1708892      0.088521581    0.55078769   
     18300  -3.7281406     -2.0417169      3592.3253      1.1248486      0.18038931     0.55312362   
     18400  -3.7356729     -2.0627213      3592.0837      1.1158626      0.067795986    0.55316083   
     18500  -3.7716074     -2.042768       3530.0191      1.1531399      0.18513511     0.56288647   
     18600  -3.7346057     -1.9813944      3571.7613      1.1693961      0.13980007     0.55630818   
     18700  -3.7110937     -1.9504371      3630.6952      1.1743621      0.049024989    0.5472781    
     18800  -3.7064021     -2.011188       3627.531       1.1307118      0.0759101      0.54775548   
     18900  -3.8094297     -2.0790901      3548.3562      1.1541405      0.11365225     0.55997761   
     19000  -3.7675924     -2.0897069      3616.4501      1.1191535     -0.042775418    0.54943382   
     19100  -3.7255228     -2.041791       3649.2984      1.123053      -0.014091005    0.54448822   
     19200  -3.771062      -1.9875894      3576.0318      1.1895805      0.04058043     0.55564383   
     19300  -3.7244133     -2.0158921      3604.7822      1.1395877      0.18989474     0.55121222   
     19400  -3.7600424     -2.0336427      3619.6094      1.1515127      0.015213643    0.54895426   
     19500  -3.7684296     -2.0382879      3578.214       1.1540086      0.073409047    0.55530496   
     19600  -3.8075883     -2.1211804      3605.971       1.1248381     -0.030775396    0.55103049   
     19700  -3.8385071     -2.1542051      3545.6194      1.1234334      0.013936014    0.56040984   
     19800  -3.9165963     -2.152813       3482.3635      1.1764476      0.011209019    0.57058949   
     19900  -3.9045577     -2.1640162      3458.4664      1.1609452      0.12360606     0.57453211   
     20000  -3.8217178     -2.1596725      3529.5351      1.1085881      0.10244341     0.56296367   
     20100  -3.8114211     -2.0919244      3521.8788      1.1469084      0.089161346    0.56418749   
     20200  -3.8006114     -2.0393059      3545.2942      1.1747949      0.080102218    0.56046124   
     20300  -3.7290514     -2.0342671      3592.4522      1.1304251      0.22816303     0.55310408   
     20400  -3.7667578     -2.0240051      3575.5054      1.1624202      0.090770578    0.55572563   
     20500  -3.7561944     -2.0319994      3587.3694      1.1500422     -0.01810772     0.55388777   
     20600  -3.820683      -2.1021239      3505.2931      1.146283       0.082270817    0.56685702   
     20700  -3.8476652     -2.1656528      3490.4414      1.1219062      0.065282087    0.56926898   
     20800  -3.9055367     -2.1703082      3450.9256      1.1574015      0.087237188    0.57578755   
     20900  -3.9116616     -2.1731017      3425.2181      1.1596235      0.13553493     0.58010905   
     21000  -3.9470553     -2.2204354      3414.1939      1.1516595      0.11014916     0.58198217   
     21100  -3.9489015     -2.2621848      3444.1837      1.125044      -0.037493575    0.57691463   
     21200  -3.9749849     -2.2241263      3377.1237      1.1678268      0.087859733    0.58837051   
     21300  -3.8607975     -2.1593424      3500.334       1.1348745      0.037069534    0.56766011   
     21400  -3.834435      -2.1008877      3529.067       1.1562801      0.052849301    0.56303833   
     21500  -3.8037296     -2.076299       3548.8439      1.1522003      0.13907057     0.55990064   
     21600  -3.8414492     -2.0437777      3505.4736      1.1990511      0.13709167     0.56682783   
     21700  -3.7443196     -2.0741617      3629.8252      1.1139992      0.0077543859   0.54740929   
     21800  -3.7884596     -2.0688223      3578.5947      1.1470021     -0.055518962    0.55524589   
     21900  -3.7300894     -2.0353097      3608.9682      1.1304221      0.10993738     0.55057287   
     22000  -3.7579556     -1.9759889      3584.9914      1.1885759      0.0054567557   0.55425516   
     22100  -3.693419      -1.9707479      3624.3882      1.1490257      0.20734116     0.54823046   
     22200  -3.7094018     -1.9905294      3638.7787      1.1464919      0.031062762    0.54606234   
     22300  -3.7877556     -2.05548        3562.4845      1.1554319      0.043292765    0.55775681   
     22400  -3.7937811     -2.1227518      3532.9779      1.1145805      0.11344065     0.56241506   
     22500  -3.8053139     -2.1190326      3523.8101      1.1247536      0.12042158     0.56387829   
     22600  -3.7745528     -2.0869989      3550.8348      1.1256024      0.0046928235   0.55958673   
     22700  -3.7712532     -2.0403605      3588.1506      1.1545095      0.016296677    0.55376717   
     22800  -3.6993803     -1.9816816      3680.5419      1.1457091      0.018691318    0.53986615   
     22900  -3.6934084     -1.9073097      3644.2347      1.191332       0.068755939    0.5452448    
     23000  -3.6309588     -1.9426038      3681.6595      1.1261367      0.13585989     0.53970228   
     23100  -3.712782      -1.9716692      3675.6661      1.1613264      0.11611546     0.54058229   
     23200  -3.7619735     -1.9951496      3649.6609      1.1784757     -0.059935915    0.54443414   
     23300  -3.752553      -2.0397769      3594.2036      1.1424257      0.050230573    0.55283457   
     23400  -3.8320575     -2.0930634      3530.7797      1.1599131     -0.00033339056  0.56276521   
     23500  -3.7851011     -2.1340817      3554.9025      1.1012338     -0.00085120886  0.55894642   
     23600  -3.832739      -2.1347689      3529.7269      1.1325501      0.035000701    0.56293307   
     23700  -3.8043042     -2.1183022      3550.7131      1.1245673      0.064059495    0.5596059    
     23800  -3.7268287     -2.0265521      3674.7081      1.1340885     -0.041962296    0.54072322   
     23900  -3.7466463     -1.9957287      3603.6078      1.1678661      0.11904202     0.55139186   
     24000  -3.7807491     -2.0222976      3600.0843      1.1728913      0.030282263    0.55193152   
     24100  -3.8082417     -2.060666       3549.9847      1.1656371      0.16677705     0.55972073   
     24200  -3.7780502     -2.118879       3588.4442      1.1066711      0.035711865    0.55372186   
     24300  -3.8324193     -2.1226037      3555.4161      1.140451      -0.045528699    0.55886567   
     24400  -3.8399836     -2.1072132      3523.5386      1.1557619      0.13760738     0.56392173   
     24500  -3.8373935     -2.0426968      3495.2301      1.1970669      0.17761274     0.56848905   
     24600  -3.6763026     -2.0103809      3680.4609      1.1111737      0.025623557    0.53987804   
     24700  -3.7165383     -1.9638598      3649.8652      1.1690407      0.099736607    0.54440367   
     24800  -3.7613312     -1.9714452      3615.6997      1.1938581      0.0021233342   0.54954785   
     24900  -3.8025506     -2.0454466      3547.3579      1.1719925      0.15759789     0.56013519   
     25000  -3.8343236     -2.0902945      3534.1798      1.1632715      0.0389642      0.5622238    
     25100  -3.842276      -2.0884762      3510.7892      1.1697885      0.13227701     0.56596962   
     25200  -3.7953175     -2.0909405      3533.0518      1.1368235      0.10704247     0.5624033    
     25300  -3.8018919     -2.1237885      3558.6692      1.1192989      0.044757069    0.55835479   
     25400  -3.9120601     -2.170279       3448.2912      1.1617721      0.09940865     0.57622744   
     25500  -3.9295435     -2.2156498      3418.3831      1.1431711      0.16063437     0.58126896   
     25600  -3.9084151     -2.201047       3432.502       1.1388186      0.070373311    0.57887803   
     25700  -3.890468      -2.1382236      3435.5831      1.1687511      0.14577449     0.57835888   
     25800  -3.7376516     -2.0372341      3550.0219      1.1341824      0.21452058     0.55971485   
     25900  -3.7531442     -2.0220527      3548.7289      1.1546421      0.18482514     0.5599188    
     26000  -3.7903158     -2.0428254      3540.837       1.1655802      0.14300388     0.56116676   
     26100  -3.8592355     -2.0872796      3510.5959      1.1818987     -0.074718709    0.56600078   
     26200  -3.8609041     -2.1552968      3475.0353      1.1376441      0.15782328     0.57179275   
     26300  -3.9240903     -2.1459101      3427.0926      1.1860504      0.18644137     0.57979174   
     26400  -3.8756932     -2.1470561      3493.7921      1.153005      -0.016619632    0.56872303   
     26500  -3.8685871     -2.1451833      3491.9937      1.1495143     -0.038881854    0.56901592   
     26600  -3.8392052     -2.1572284      3505.0442      1.1218825      0.015007957    0.56689728   
     26700  -3.8692041     -2.180487       3500.0601      1.1263782     -0.0033221804   0.56770453   
     26800  -3.8564584     -2.1753602      3498.7963      1.1212965      0.075040298    0.56790959   
     26900  -3.8863307     -2.1385762      3465.7348      1.1657564      0.03731183     0.57332719   
     27000  -3.8076114     -2.1228356      3543.7492      1.1237494      0.10304144     0.56070559   
     27100  -3.8526056     -2.0527762      3500.8665      1.2004904      0.06784948     0.56757377   
     27200  -3.763113      -2.0408342      3583.4988      1.148764       0.0085221559   0.55448602   
     27300  -3.7406233     -2.0197469      3613.6898      1.1478286      0.064548875    0.54985351   
     27400  -3.7729663     -1.9703475      3559.5207      1.202351       0.14524141     0.55822122   
     27500  -3.6793509     -1.9720071      3640.3102      1.1388023      0.18137412     0.5458326    
     27600  -3.722552      -1.9719075      3620.2333      1.167684       0.0694113      0.54885966   
     27700  -3.7429108     -2.0041459      3570.2483      1.1597603      0.21494982     0.55654393   
     27800  -3.8055647     -2.0830248      3536.1127      1.1489381      0.013273956    0.56191648   
     27900  -3.8253417     -2.1237555      3521.4183      1.134962       0.01355097     0.56426129   
     28000  -3.8487491     -2.1470127      3487.9111      1.1350622      0.071092536    0.56968194   
     28100  -3.8699671     -2.165732       3478.897       1.1367288      0.062542646    0.57115804   
     28200  -3.8173141     -2.1149736      3533.1805      1.1354652      0.0030431611   0.56238281   
     28300  -3.7952197     -2.0553933      3540.8741      1.1604683      0.041560283    0.56116087   
     28400  -3.7721105     -2.0565252      3528.4108      1.1442995      0.20574832     0.56314305   
     28500  -3.7912585     -2.0779249      3536.6827      1.1427975      0.15305299     0.56182592   
     28600  -3.8464551     -2.1481513      3547.1817      1.1327726      0.00020191717  0.56016302   
     28700  -3.8943861     -2.1823513      3469.5058      1.1419312      0.0086097214   0.57270404   
     28800  -3.8705983     -2.2135349      3459.4876      1.1052652      0.16776511     0.57436251   
     28900  -3.9468822     -2.2396277      3428.0647      1.1387427     -0.01705947     0.57962733   
     29000  -3.9502764     -2.2957061      3448.2131      1.1036023     -0.041461415    0.57624049   
     29100  -3.9823055     -2.2852235      3392.9226      1.1319577      0.063619644    0.58563081   
     29200  -3.9050408     -2.2219301      3471.9197      1.1226388     -0.057139796    0.57230586   
     29300  -3.867588      -2.1647555      3478.8974      1.1357933      0.036513344    0.57115798   
     29400  -3.8277026     -2.1334214      3503.4948      1.1300896      0.071263135    0.56714798   
     29500  -3.872032      -2.0954866      3487.4213      1.18496        0.009337613    0.56976196   
     29600  -3.7982364     -2.0834106      3529.656       1.1437928      0.1051545      0.56294437   
     29700  -3.785678      -2.0518263      3571.8405      1.1564832      0.0081241904   0.55629584   
     29800  -3.7476897     -2.0364948      3593.8151      1.141371       0.085601835    0.55289434   
     29900  -3.7563043     -2.0281881      3568.1183      1.1526576      0.05774567     0.55687616   
     30000  -3.706729      -2.0472125      3662.8391      1.1069015     -0.044704374    0.54247537   
     30100  -3.7963581     -2.0364161      3552.9608      1.1738854      0.076295942    0.55925188   
     30200  -3.7267183     -2.0755019      3597.8331      1.1013652      0.071655701    0.55227686   
     30300  -3.828218      -2.0990114      3517.0032      1.1533849      0.067884698    0.56496963   
     30400  -3.8556982     -2.1476905      3491.5916      1.1392451      0.11654527     0.56908144   
     30500  -3.959599      -2.2147088      3410.3156      1.1638459      0.037658919    0.58264402   
     30600  -3.9290444     -2.2438416      3425.2607      1.1240342      0.071124015    0.58010184   
     30700  -3.9355004     -2.2405118      3460.8465      1.1305614     -0.049339696    0.57413698   
     30800  -3.8558067     -2.203133       3478.4355      1.1023372      0.064971875    0.57123382   
     30900  -3.8184437     -2.1365453      3526.182       1.1218302      0.016352641    0.56349899   
     31000  -3.8780841     -2.1234813      3488.6197      1.1703242      0.0714979      0.56956623   
     31100  -3.8772079     -2.1530166      3503.9325      1.1500396      0.061430987    0.56707714   
     31200  -3.8520145     -2.1647608      3493.4571      1.1254022      0.033980886    0.56877756   
     31300  -3.8350574     -2.1333542      3502.1609      1.13504        0.044965762    0.56736399   
     31400  -3.8070253     -2.0761742      3553.6367      1.1544818      0.14184355     0.55914551   
     31500  -3.7384645     -2.0135137      3573.153       1.1505462      0.20424884     0.55609149   
     31600  -3.7671349     -1.9949017      3551.5572      1.1820837      0.23517711     0.5594729    
     31700  -3.7478194     -2.033144       3607.5075      1.1436925      0.099158782    0.55079581   
     31800  -3.7821799     -2.0692393      3595.5346      1.1425354     -0.0033904129   0.55262993   
     31900  -3.8037092     -2.0762648      3573.7258      1.1522094      0.041746464    0.55600236   
     32000  -3.7761307     -2.0674613      3592.0569      1.1396865      0.033896527    0.55316496   
     32100  -3.7902604     -2.0407746      3602.0061      1.1669112      0.055294218    0.55163705   
     32200  -3.6988495     -1.9373717      3635.2649      1.1749099      0.043389162    0.54659015   
     32300  -3.6632418     -1.9236218      3655.1449      1.1603306      0.062084169    0.5436173    
     32400  -3.7088206     -1.9559881      3647.5727      1.1691434      0.068541177    0.54474583   
     32500  -3.7641815     -2.0143665      3604.6328      1.1671307      0.034081997    0.55123507   
     32600  -3.8129381     -2.0577416      3546.3946      1.1707202      0.028403522    0.56028735   
     32700  -3.7928573     -2.095396       3621.7012      1.1322107     -0.014284766    0.5486372    
     32800  -3.7889413     -2.0849888      3582.716       1.1365403      0.12427229     0.55460717   
     32900  -3.7616947     -2.049287       3610.0596      1.1421799      0.044679711    0.55040643   
     33000  -3.7533751     -2.0156581      3593.8056      1.1590613      0.054277971    0.5528958    
     33100  -3.7545434     -1.9996904      3595.2867      1.1704911      0.0096817224   0.55266802   
     33200  -3.6486701     -1.9100305      3686.74        1.1596767      0.091702911    0.53895853   
     33300  -3.6461899     -1.8863021      3699.1966      1.1738493      0.17025176     0.53714365   
     33400  -3.6367527     -1.9127204      3757.3213      1.1499336      0.03607934     0.52883419   
     33500  -3.6622748     -1.9306415      3725.8737      1.1550035     -0.0042647228   0.53329773   
     33600  -3.6971158     -1.9860244      3680.9873      1.141302       0.0023862315   0.53980083   
     33700  -3.7388113     -2.0437596      3600.9637      1.1306034      0.094344218    0.55179673   
     33800  -3.7405914     -2.0651097      3632.516       1.1175502      0.055117953    0.54700378   
     33900  -3.7782281     -2.0437992      3558.1097      1.1568681      0.075931647    0.5584426    
     34000  -3.7850619     -2.066999       3568.1562      1.145952      -0.02195447     0.55687025   
     34100  -3.811962      -2.087354       3565.0763      1.1503176      0.1586039      0.55735133   
     34200  -3.7925483     -2.1085873      3567.5832      1.1232059      0.11809461     0.55695968   
     34300  -3.8805997     -2.11282        3493.7902      1.1791132      0.088874034    0.56872333   
     34400  -3.921586      -2.1515959      3452.9277      1.1805875      0.14294432     0.5754537    
     34500  -3.9122048     -2.2148836      3452.1492      1.1321172      0.05212173     0.57558347   
     34600  -3.8935037     -2.2162296      3464.8458      1.1187458     -0.020282551    0.57347429   
     34700  -3.8318325     -2.1555439      3510.5472      1.1180884      0.053765968    0.56600863   
     34800  -3.7961984     -2.0888175      3556.12        1.1388271      0.12086667     0.55875505   
     34900  -3.754154      -2.0572332      3616.3894      1.1318502     -0.056342366    0.54944304   
     35000  -3.7614089     -2.0233553      3576.7363      1.1592859      0.12280734     0.55553438   
     35100  -3.7294089     -2.0076537      3560.7714      1.1484147      0.21175191     0.55802515   
     35200  -3.6905607     -1.9732176      3652.3864      1.1454719      0.042050908    0.54402788   
     35300  -3.6508528     -1.9176274      3694.9968      1.1560654      0.083680644    0.53775419   
     35400  -3.6429966     -1.8548507      3712.458       1.1926975      0.066208866    0.5352249    
     35500  -3.6159801     -1.8585429      3768.0916      1.1722148      0.098343327    0.52732264   
     35600  -3.6616215     -1.923891       3680.8646      1.1590703      0.1073862      0.53981882   
     35700  -3.7693814     -2.0040991      3548.1803      1.1774474      0.15609872     0.56000536   
     35800  -3.7493339     -2.0478582      3610.7302      1.1348883      0.067389839    0.5503042    
     35900  -3.8045663     -2.0617476      3549.9573      1.1624641      0.10428785     0.55972505   
     36000  -3.8026333     -2.1054402      3549.8418      1.1320318      0.10125293     0.55974325   
     36100  -3.8013366     -2.1341943      3547.7755      1.1119879      0.09216431     0.56006926   
     36200  -3.7735093     -2.083022       3560.9833      1.127559       0.16342557     0.55799194   
     36300  -3.8134121     -2.0188658      3541.6186      1.1969666      0.026644477    0.5610429    
     36400  -3.7374624     -2.0532632      3595.9266      1.1233648      0.016704864    0.55256968   
     36500  -3.7453089     -2.0925592      3615.0838      1.102388      -0.017663893    0.54964148   
     36600  -3.781739      -2.0738833      3601.1903      1.1391438     -0.04687802     0.55176201   
     36700  -3.7053617     -1.9880738      3621.5651      1.1454351      0.13706819     0.54865782   
     36800  -3.7686071     -1.9812298      3583.1439      1.1921849      0.14420348     0.55454095   
     36900  -3.7875621     -2.0159279      3576.7666      1.1816842      0.033427979    0.55552968   
     37000  -3.7401559     -2.0571187      3632.9853      1.1225898      0.0561189      0.54693312   
     37100  -3.7721313     -2.0490038      3566.0242      1.1493301      0.056580738    0.55720317   
     37200  -3.76591       -2.0766852      3579.7996      1.1267169     -0.022596808    0.555059     
     37300  -3.8104959     -2.0968506      3513.1417      1.1430055      0.055125741    0.56559062   
     37400  -3.8785145     -2.0949216      3480.994       1.1896607      0.024585341    0.57081397   
     37500  -3.8247073     -2.1102526      3521.5104      1.1435454      0.065379014    0.56424652   
     37600  -3.804947      -2.0956145      3569.0883      1.1401288      0.034475756    0.55672481   
     37700  -3.7963853     -2.0433486      3569.414       1.1692796      0.05311505     0.55667401   
     37800  -3.7156518     -1.995355       3665.3926      1.147442      -0.016492818    0.54209746   
     37900  -3.6824642     -1.9539047      3652.2362      1.1529533      0.11766186     0.54405025   
     38000  -3.633365      -1.9296795      3717.3538      1.1363623      0.092463252    0.53452002   
     38100  -3.6009283     -1.8780088      3787.7567      1.1491914      0.036719083    0.52458491   
     38200  -3.5885494     -1.8361729      3773.023       1.1688393      0.0075612846   0.52663342   
     38300  -3.5689067     -1.8298726      3790.6364      1.1599398      0.044486581    0.52418639   
     38400  -3.5289361     -1.8459922      3834.1982      1.1225276      0.038112626    0.5182309    
     38500  -3.589852      -1.8597684      3786.0228      1.1539699     -0.018059276    0.52482515   
     38600  -3.6757929     -1.9062493      3693.1799      1.1802897      0.0067573785   0.53801874   
     38700  -3.721377      -1.9773052      3632.5068      1.1633         0.067068055    0.54700517   
     38800  -3.6842932     -2.0184535      3675.8207      1.111119       0.11588871     0.54055956   
     38900  -3.7283685     -2.0036461      3615.6317      1.1503939      0.15282995     0.54955818   
     39000  -3.735441      -2.0137646      3611.5156      1.1483622      0.10591901     0.55018453   
     39100  -3.794394      -2.0611435      3554.7457      1.1560821      0.10089709     0.55897106   
     39200  -3.836957      -2.1330252      3509.7118      1.1365265      0.042322246    0.56614335   
     39300  -3.9143322     -2.1756468      3422.6426      1.1597072      0.14189002     0.58054557   
     39400  -3.9029778     -2.1896199      3428.3935      1.1428137      0.080561038    0.57957175   
     39500  -3.906523      -2.1832768      3425.0622      1.1494093      0.11655787     0.58013545   
     39600  -3.7785251     -2.0975321      3557.1243      1.1212262      0.048004904    0.55859729   
     39700  -3.7786808     -2.0576127      3557.0793      1.1479565      0.1093333      0.55860436   
     39800  -3.8099313     -2.0617102      3559.2016      1.1660676      0.011715998    0.55827127   
     39900  -3.7769114     -2.0846778      3569.8813      1.1287238     -0.023580724    0.55660115   
     40000  -3.8057344     -2.1094532      3547.3621      1.1314236      0.08598439     0.56013453   
     40100  -3.8604297     -2.1126963      3478.4345      1.1657423      0.2232407      0.57123399   
     40200  -3.8083222     -2.0877073      3519.682       1.1476542      0.066768841    0.56453963   
     40300  -3.7826853     -2.0699703      3543.7449      1.1423849      0.079197041    0.56070628   
     40400  -3.7928087     -2.091391       3568.363       1.1348496      0.076868579    0.55683797   
     40500  -3.7747269     -2.069344       3571.7331      1.1374944      0.15802767     0.55631256   
     40600  -3.7988833     -2.0056345      3558.7576      1.1961012      0.0491273      0.55834092   
     40700  -3.8056553     -2.0352177      3568.5041      1.180886       0.052646998    0.55681594   
     40800  -3.7806167     -2.081089       3583.3512      1.133589       0.084236964    0.55450886   
     40900  -3.8360044     -2.0725179      3521.2214      1.1762496      0.055943289    0.56429283   
     41000  -3.8232632     -2.0899015      3512.6095      1.1561563      0.085491425    0.56567632   
     41100  -3.8166976     -2.1291976      3496.4121      1.1255664      0.22262797     0.56829686   
     41200  -3.9637754     -2.2161962      3399.4076      1.1656394      0.10950192     0.5845136    
     41300  -3.9688769     -2.2425077      3399.6116      1.1514923      0.041336058    0.58447853   
     41400  -3.9214683     -2.2365667      3424.3354      1.1238333      0.097065422    0.58025859   
     41500  -3.9123753     -2.171769       3403.7552      1.1609885      0.17107007     0.58376701   
     41600  -3.8316986     -2.1345667      3500.0517      1.131991       0.11341824     0.5677059    
     41700  -3.7881171     -2.1045615      3534.6592      1.1229355      0.15658504     0.56214755   
     41800  -3.8532939     -2.0872949      3520.8122      1.1779255      0.054324027    0.56435842   
     41900  -3.8107562     -2.1148929      3566.0917      1.1311448      0.091146648    0.55719263   
     42000  -3.8687028     -2.1545534      3498.4417      1.1433417      0.057102507    0.56796717   
     42100  -3.9120787     -2.1563243      3423.7351      1.1710924      0.20811975     0.58036032   
     42200  -3.8685672     -2.1444298      3496.9735      1.1500037      0.056355686    0.56820563   
     42300  -3.8510907     -2.1200005      3514.5882      1.1546413      0.1187402      0.56535785   
     42400  -3.7892933     -2.0580376      3543.0985      1.1547516      0.10986845     0.56080857   
     42500  -3.7887401     -2.0231868      3559.9852      1.1776282      0.086091121    0.55814839   
     42600  -3.7565475     -2.0159279      3604.3786      1.1609974      0.11334329     0.55127394   
     42700  -3.7177077     -1.9861544      3632.1703      1.1549501      0.18699548     0.54705585   
     42800  -3.650945      -1.9206403      3701.5905      1.1541173      0.014010734    0.53679627   
     42900  -3.6150035     -1.8857453      3771.8045      1.1534193      0.052647742    0.52680355   
     43000  -3.6060735     -1.8694305      3766.4821      1.158345       0.076425422    0.52754797   
     43100  -3.5712734     -1.8717248      3800.329       1.1336029     -0.055581905    0.52284947   
     43200  -3.681876      -1.9247567      3682.9572      1.1720027     -0.012666023    0.5395121    
     43300  -3.707482      -1.9998443      3658.7374      1.1389983      0.056311433    0.54308353   
     43400  -3.724391      -2.0132057      3626.0627      1.1413646      0.087521878    0.54797728   
     43500  -3.8060142     -2.0469839      3564.1253      1.1732773      0.060584463    0.55750004   
     43600  -3.831514      -2.1028301      3534.5345      1.1530362      0.17956375     0.56216737   
     43700  -3.8283686     -2.0994491      3545.8008      1.1531934      0.079636068    0.56038117   
     43800  -3.8277468     -2.0902233      3527.9362      1.1589323      0.092805707    0.56321881   
     43900  -3.832081      -2.0870382      3525.32        1.1639476      0.11306692     0.56363677   
     44000  -3.7806721     -2.0675885      3580.2372      1.1426308      0.11420717     0.55499116   
     44100  -3.7360018     -2.0068725      3630.2587      1.1533333      0.15729515     0.54734391   
     44200  -3.6886098     -1.9678466      3711.9328      1.1477531      0.021851205    0.53530064   
     44300  -3.6916593     -1.9293681      3675.1902      1.1754523      0.11727607     0.54065229   
     44400  -3.6994005     -1.9672648      3720.9417      1.1553386     -0.0036049806   0.5340046    
     44500  -3.775387      -2.017415       3628.6675      1.1725715      0.095979931    0.54758392   
     44600  -3.753226      -2.0497583      3627.5166      1.136217      -0.008101853    0.54775765   
     44700  -3.7521616     -2.0298786      3586.3592      1.1487668      0.089852147    0.55404378   
     44800  -3.7801122     -2.034688       3610.2892      1.1642021      0.024920943    0.55037143   
     44900  -3.7851836     -2.0481754      3561.1404      1.1585885      0.16432068     0.55796734   
     45000  -3.7884747     -2.0938433      3554.1632      1.1303231      0.071896155    0.55906267   
     45100  -3.8896558     -2.165949       3465.3738      1.1497165      0.094354168    0.57338692   
     45200  -3.9226073     -2.1807452      3435.3024      1.1618262      0.079626824    0.57840613   
     45300  -3.8626489     -2.1679823      3490.5967      1.1303466      0.15054299     0.56924365   
     45400  -3.8579872     -2.1241354      3537.7453      1.1564832      0.028886781    0.56165716   
     45500  -3.7824995     -2.0865888      3576.0366      1.1311765      0.080971893    0.55564309   
     45600  -3.811883      -2.0497036      3537.5734      1.1753778      0.14399066     0.56168446   
     45700  -3.7558098     -2.0446211      3577.6928      1.1413669      0.069815148    0.55538587   
     45800  -3.7658457     -2.0387007      3614.1317      1.1520097      0.0028503592   0.54978627   
     45900  -3.7347159     -2.0160513      3609.4883      1.1463533      0.07925478     0.55049355   
     46000  -3.7384686     -1.959519       3652.9435      1.1865636     -0.043377634    0.5439449    
     46100  -3.6751331     -1.9413636      3636.6804      1.1564283      0.11719206     0.54637741   
     46200  -3.7017775     -1.967127       3648.2383      1.157016       0.043615356    0.54464643   
     46300  -3.7501499     -2.059807       3591.7035      1.1274627      0.080463771    0.55321939   
     46400  -3.8499065     -2.0763378      3508.1956      1.1829745      0.086234787    0.56638802   
     46500  -3.844107      -2.1152136      3518.8621      1.153176       0.012093981    0.56467117   
     46600  -3.8426379     -2.1692018      3523.9241      1.1161858      0.051019329    0.56386004   
     46700  -3.8988337     -2.1704901      3486.2333      1.1528092     -0.037819833    0.56995612   
     46800  -3.8732408     -2.1395378      3439.2795      1.1563839      0.21093839     0.57773729   
     46900  -3.7919254     -2.0399465      3531.3154      1.168574       0.18287971     0.56267984   
     47000  -3.7285497     -2.0021187      3622.6777      1.1515335      0.16198911     0.54848931   
     47100  -3.7132857     -1.9833175      3628.111       1.1538929      0.12104962     0.54766792   
     47200  -3.7332317     -1.9620044      3580.2221      1.1814128      0.19929361     0.5549935    
     47300  -3.7814534     -2.0201108      3584.1244      1.1748196      0.054327122    0.55438924   
     47400  -3.8574401     -2.0801502      3480.5049      1.1854565      0.16489406     0.57089418   
     47500  -3.8207856     -2.11008        3497.3375      1.1410447      0.16644663     0.56814649   
     47600  -3.8218789     -2.1113341      3518.0912      1.1409374      0.099636766    0.56479492   
     47700  -3.8278275     -2.088772       3536.4576      1.1599541     -0.025751839    0.56186168   
     47800  -3.7462069     -2.00403        3569.9275      1.1620361      0.22653182     0.55659394   
     47900  -3.7060812     -1.9581496      3614.474       1.1658745      0.093859915    0.54973421   
     48000  -3.702985      -1.9943983      3624.8828      1.1396313      0.099116202    0.54815565   
     48100  -3.7758884     -2.0450273      3589.1703      1.1544884      0.061455433    0.55360984   
     48200  -3.7758881     -2.0507669      3582.1242      1.1506599      0.07028891     0.5546988    
     48300  -3.7719153     -2.0578081      3597.1628      1.1433135      0.0037576906   0.55237978   
     48400  -3.8026705     -2.0805527      3555.2828      1.1486566      0.095673598    0.55888663   
     48500  -3.8430567     -2.1549857      3543.7893      1.1259473     -0.064703196    0.56069924   
     48600  -3.8562026     -2.1706095      3521.5447      1.1242945     -0.05400882     0.56424102   
     48700  -3.860237      -2.1324751      3472.4422      1.1524213      0.13878106     0.57221974   
     48800  -3.8097648     -2.0743155      3573.4851      1.1575488     -0.020301744    0.55603982   
     48900  -3.7625194     -2.0257275      3575.3086      1.1584443      0.11246455     0.55575622   
     49000  -3.7172677     -2.0212229      3612.281       1.1312659      0.11305447     0.55006795   
     49100  -3.7816816     -1.996752       3571.2963      1.1905522      0.029857124    0.55638061   
     49200  -3.7206354     -2.0197591      3598.365       1.1344885      0.08746728     0.55219524   
     49300  -3.8085394     -2.1073636      3560.8815      1.1346883      0.022934651    0.55800789   
     49400  -3.8545454     -2.1515061      3488.1856      1.1359312      0.15401784     0.56963712   
     49500  -3.8905566     -2.1534204      3484.1055      1.1586739      0.051544471    0.57030421   
     49600  -3.8286971     -2.1221956      3565.9918      1.1382405      0.043903615    0.55720823   
     49700  -3.8278886     -2.0459956      3560.2781      1.1885268     -0.02859725     0.55810246   
     49800  -3.7907433     -2.0544868      3544.8397      1.1580872      0.039829998    0.56053311   
     49900  -3.8274046     -2.0827596      3510.8941      1.1636823      0.077430958    0.5659527    
     50000  -3.8278939     -2.1256435      3506.7094      1.135405       0.10684933     0.56662807   
     50100  -3.8564364     -2.1755439      3470.325       1.1211592      0.088903995    0.57256885   
     50200  -3.9186039     -2.2574524      3416.7633      1.107992       0.10026213     0.58154453   
     50300  -3.9539668     -2.2540487      3417.5284      1.1338494      0.076638321    0.58141433   
     50400  -3.9559598     -2.2016057      3385.6681      1.1701583      0.11964253     0.58688564   
     50500  -3.8795895     -2.1862667      3481.924       1.1294503      0.067239913    0.5706615    
     50600  -3.8629079     -2.1244702      3506.2218      1.159542       0.1762409      0.56670687   
     50700  -3.7794721     -2.0865886      3573.4406      1.1291572      0.12219395     0.55604674   
     50800  -3.7912014     -2.0664501      3609.7338      1.1504132     -0.049982486    0.5504561    
     50900  -3.7655784     -2.0253274      3601.0256      1.1607515      0.087583131    0.55178724   
     51000  -3.7028003     -1.9950972      3634.4758      1.139042       0.1131788      0.54670882   
     51100  -3.720385      -1.9306096      3625.5033      1.1937844      0.0092887716   0.54806184   
     51200  -3.5985279     -1.8820812      3739.9497      1.144874       0.083371781    0.53129057   
     51300  -3.5622829     -1.8537777      3759.9721      1.139577       0.09849217     0.52846137   
     51400  -3.6053753     -1.8464528      3757.1336      1.1732055      0.0665212      0.52886062   
     51500  -3.6451238     -1.9330992      3695.8669      1.1419245      0.059753492    0.53762759   
     51600  -3.7918493     -1.9923341      3578.4394      1.2002809      0.11652017     0.55526998   
     51700  -3.771053      -2.0503509      3590.9337      1.1477123      0.10491975     0.55333798   
     51800  -3.800768      -2.0724998      3536.3733      1.1527589      0.10765456     0.56187507   
     51900  -3.8200922     -2.084215       3528.4269      1.1578341      0.11282239     0.56314048   
     52000  -3.792953      -2.0927886      3552.0402      1.1340136      0.054888862    0.55939682   
     52100  -3.7894777     -2.1038705      3553.6308      1.1243039     -0.04093672     0.55914644   
     52200  -3.8489783     -2.1355815      3492.5632      1.1428397      0.052120645    0.56892313   
     52300  -3.8640382     -2.1646396      3493.3342      1.1335029      0.014689588    0.56879757   
     52400  -3.839066      -2.1544578      3523.8891      1.1236376     -0.058962106    0.56386564   
     52500  -3.8310284     -2.0987189      3527.0815      1.1554545      0.046834974    0.56335529   
     52600  -3.7782797     -2.0408007      3590.6116      1.1589026      0.073893974    0.55338762   
     52700  -3.7377618     -2.0114035      3621.7278      1.151485       0.009230066    0.54863317   
     52800  -3.7342105     -2.0267183      3583.7539      1.1389013      0.14575141     0.55444655   
     52900  -3.760565      -2.0459672      3606.6744      1.1436408     -0.027365326    0.55092303   
     53000  -3.7789335     -2.0587548      3567.9552      1.1473632     -0.086205992    0.55690162   
     53100  -3.8599781     -2.0880051      3505.3262      1.1819101      0.0052519405   0.56685167   
     53200  -3.8715048     -2.141138       3489.7696      1.1541587      0.10380652     0.56937856   
     53300  -3.9265037     -2.1493197      3456.264       1.1853859      0.10131033     0.57489821   
     53400  -3.8672056     -2.1642457      3469.5278      1.1358783      0.090382528    0.57270041   
     53500  -3.8884697     -2.1707752      3473.7981      1.1457062     -0.070076911    0.57199639   
     53600  -3.8548064     -2.1765935      3484.7813      1.119372       0.023812086    0.5701936    
     53700  -3.8999466     -2.1469833      3429.4353      1.1692306      0.10394169     0.57939568   
     53800  -3.8673363     -2.1049432      3468.5416      1.1755203      0.13263981     0.57286324   
     53900  -3.8288022     -2.0559159      3540.266       1.1825193      0.034585091    0.56125725   
     54000  -3.7995603     -2.0269081      3550.0484      1.1823632      0.060445358    0.55971068   
     54100  -3.7790177     -2.0668179      3592.8951      1.1420413      0.047575702    0.5530359    
     54200  -3.8318399     -2.0883132      3531.8515      1.1629364      0.035097795    0.56259443   
     54300  -3.7987343     -2.0980674      3551.2002      1.1343488     -0.018240395    0.55952914   
     54400  -3.8030473     -2.0930606      3542.4226      1.1405651      0.023210908    0.56091558   
     54500  -3.7901183     -2.0998015      3560.6198      1.1274453      0.07006891     0.5580489    
     54600  -3.8647186     -2.0908213      3489.2661      1.1831937      0.069299192    0.56946073   
     54700  -3.8481379     -2.1056894      3515.0296      1.1622172     -0.034503216    0.56528684   
     54800  -3.8222276     -2.138153       3502.1306      1.1232818      0.058153289    0.56736891   
     54900  -3.8972947     -2.1953024      3474.5459      1.1352329     -0.015771351    0.57187329   
     55000  -3.9120127     -2.2201888      3449.1214      1.1284505      0.058735031    0.57608875   
     55100  -3.8970627     -2.2150712      3445.2765      1.1218923      0.12106376     0.57673165   
     55200  -3.8771862     -2.1551817      3455.214       1.1485811      0.055702137    0.57507293   
     55300  -3.8875389     -2.0964797      3460.9559      1.1946407      0.1423768      0.57411884   
     55400  -3.8476451     -2.09032        3536.1187      1.17214       -0.019178469    0.56191552   
     55500  -3.7809711     -2.0744567      3564.7979      1.1382491      0.027363838    0.55739485   
     55600  -3.7855399     -2.0109466      3564.8187      1.1836579      0.033599029    0.5573916    
     55700  -3.7134213     -1.9692644      3618.9667      1.1633568      0.033492876    0.54905175   
     55800  -3.6732813     -1.9607857      3666.5673      1.1422386      0.078002458    0.54192377   
     55900  -3.724077      -1.9410177      3616.7466      1.1893048      0.016866663    0.54938878   
     56000  -3.7581376     -2.0026079      3576.7191      1.1709424      0.026301032    0.55553706   
     56100  -3.7781173     -2.0616072      3539.2886      1.1449163      0.12261325     0.56141225   
     56200  -3.8221209     -2.1142919      3527.6177      1.1391259      0.049638445    0.56326965   
     56300  -3.8880769     -2.1427544      3493.8192      1.1641342      0.088787791    0.56871861   
     56400  -3.8961586     -2.1645026      3444.1006      1.1550186      0.21087275     0.57692857   
     56500  -3.853277      -2.1364658      3492.0256      1.1451171      0.13714211     0.56901072   
     56600  -3.805887      -2.0626073      3514.533       1.1627716      0.14286193     0.56536672   
     56700  -3.733474      -2.0248845      3579.7226      1.1396332      0.13987495     0.55507095   
     56800  -3.7274355     -2.0137159      3628.983       1.143055      -0.024053699    0.54753633   
     56900  -3.7762891     -2.0444241      3570.5589      1.155158       0.089789875    0.55649552   
     57000  -3.828893      -2.1348641      3542.5315      1.1299213      0.0020750039   0.56089833   
     57100  -3.8411652     -2.1428512      3506.773       1.1327794      0.12042748     0.5666178    
     57200  -3.8490315     -2.1354248      3509.2276      1.1429797      0.14444383     0.56622147   
     57300  -3.8338424     -2.0731664      3547.416       1.174375       0.028973172    0.56012602   
     57400  -3.7775874     -2.0254912      3606.5004      1.1686522      0.0071554513   0.55094962   
     57500  -3.7479234     -2.0238311      3639.2107      1.1499737      0.023096811    0.54599751   
     57600  -3.7763224     -2.0254958      3580.0786      1.1678055      0.0060955514   0.55501575   
     57700  -3.7596487     -2.0422544      3624.9226      1.145506       0.10490273     0.54814964   
     57800  -3.7631532     -2.1013046      3570.027       1.1084569      0.16150387     0.55657843   
     57900  -3.8437504     -2.1331587      3486.2661      1.1409687      0.16357371     0.56995075   
     58000  -3.8690059     -2.1629039      3479.8035      1.137974       0.10181579     0.57100925   
     58100  -3.9256097     -2.2085428      3422.9819      1.1452877      0.13270588     0.58048802   
     58200  -3.9552407     -2.2777228      3427.6629      1.1189084      0.010048897    0.57969528   
     58300  -3.9446155     -2.2715562      3440.782       1.1159345      0.030772887    0.577485     
     58400  -3.9419102     -2.236883       3425.6902      1.1372572      0.062518004    0.58002909   
     58500  -3.8937482     -2.202561       3473.5544      1.1280258      0.059440936    0.57203652   
     58600  -3.9023717     -2.1546404      3474.4664      1.1657409      0.083765692    0.57188637   
     58700  -3.8442964     -2.1173629      3515.3449      1.1518687      0.091369199    0.56523614   
     58800  -3.8310443     -2.1051517      3526.6235      1.1511744      0.027068439    0.56342845   
     58900  -3.8122015     -2.1043523      3530.1238      1.1391395      0.075605075    0.56286977   
     59000  -3.7665584     -2.0845513      3604.9395      1.1219027     -0.038808183    0.55118817   
     59100  -3.7100449     -1.9929354      3709.2063      1.145316      -0.11412686     0.53569411   
     59200  -3.7099268     -1.9557276      3655.7782      1.1700549      0.074195871    0.54352313   
     59300  -3.6994525     -1.9676846      3677.0256      1.1550933      0.07788143     0.54038241   
     59400  -3.7630488     -2.0219047      3637.7637      1.1613472     -0.046210442    0.5462147    
     59500  -3.8116068     -2.0807616      3544.0595      1.1544778      0.060382816    0.56065651   
     59600  -3.841559      -2.1076078      3505.7461      1.1565495      0.1186798      0.56678377   
     59700  -3.8206396     -2.1247096      3513.6721      1.1311893      0.14725197     0.56550524   
     59800  -3.8191507     -2.1387224      3539.7801      1.1208497      0.10295025     0.56133431   
     59900  -3.876416      -2.1738591      3470.0608      1.1356095      0.092842403    0.57261245   
     60000  -3.8827762     -2.2192426      3467.6542      1.1095809      0.083050015    0.57300985   
     60100  -3.8894833     -2.2066416      3482.7162      1.1224594      0.025335211    0.57053169   
     60200  -3.8653202     -2.1488707      3486.9241      1.1448759      0.075440592    0.56984321   
     60300  -3.8098648     -2.0827274      3565.4379      1.1520047      0.031452359    0.5572948    
     60400  -3.7714978     -2.0504653      3560.6447      1.1479327      0.1348817      0.558045     
     60500  -3.749997      -2.0174166      3585.1125      1.1556351      0.12253724     0.55423644   
     60600  -3.7224765     -1.9951439      3609.3974      1.1521349      0.10890249     0.55050741   
     60700  -3.7855053     -1.9728372      3558.6838      1.2090539      0.032727178    0.5583525    
     60800  -3.742795      -2.0137849      3594.3674      1.1532538      0.019480833    0.55280938   
     60900  -3.7856418     -2.0887941      3556.5703      1.1318014     -0.068817261    0.5586843    
     61000  -3.8091411     -2.1436776      3515.3882      1.110868       0.079015624    0.56522918   
     61100  -3.8741441     -2.1501787      3473.7521      1.149889       0.025657835    0.57200397   
     61200  -3.8633377     -2.1346966      3479.7513      1.1530077      0.069644795    0.57101781   
     61300  -3.8329429     -2.0815979      3511.5383      1.1681512      0.027846607    0.56584888   
     61400  -3.7813211     -2.0681963      3558.7523      1.1426582      0.0933365      0.55834176   
     61500  -3.7753643     -2.0585424      3579.9119      1.1451242      0.10388881     0.5550416    
     61600  -3.7365623     -1.9917831      3617.7849      1.1637718      0.047083256    0.54923111   
     61700  -3.6718381     -1.9654195      3674.8023      1.1381852      0.018654708    0.54070935   
     61800  -3.7266604     -1.9624069      3619.6516      1.1767612      0.10481383     0.54894785   
     61900  -3.7641291     -2.0456854      3591.8438      1.146206      -0.059101212    0.55319778   
     62000  -3.8032749     -2.0963246      3518.7928      1.1385398      0.069055154    0.56468229   
     62100  -3.8382498     -2.1332329      3534.2982      1.1372503     -0.029710515    0.56220497   
     62200  -3.8358774     -2.145161       3536.9966      1.1277118     -0.039318371    0.56177605   
     62300  -3.78987       -2.0958168      3560.3029      1.1299375      0.00038856781  0.55809858   
     62400  -3.7351799     -2.0419756      3639.441       1.1293713      0.019948042    0.54596296   
     62500  -3.7542156     -2.0049835      3572.8257      1.166742       0.17500739     0.55614244   
     62600  -3.7161033     -1.9902209      3602.8861      1.1511676      0.13017676     0.5515023    
     62700  -3.7367055     -2.0043684      3612.3289      1.1554729      0.089617205    0.55006065   
     62800  -3.7709959     -2.0123034      3591.9015      1.173052       0.10919125     0.5531889    
     62900  -3.7626664     -2.0857848      3585.424       1.118484       0.083141317    0.55418829   
     63000  -3.8270436     -2.134694       3525.6017      1.1288011      0.092952465    0.56359173   
     63100  -3.8363207     -2.1120752      3509.972       1.1500758     -0.049235849    0.56610138   
     63200  -3.8247987     -2.083169       3556.2136      1.1616711      0.018370958    0.55874034   
     63300  -3.7881955     -2.0147554      3563.0231      1.1828887      0.11142206     0.55767251   
     63400  -3.6983636     -1.949975       3675.4784      1.1661793     -0.0094444985   0.5406099    
     63500  -3.654802      -1.9427215      3692.5303      1.1419617      0.11369567     0.53811339   
     63600  -3.6819707     -1.9490034      3655.3732      1.1558933     -0.00081417969  0.54358335   
     63700  -3.7229708     -2.0239365      3611.8678      1.1332599      0.026518046    0.55013088   
     63800  -3.8100121     -2.0566734      3507.0591      1.169481       0.26487494     0.56657158   
     63900  -3.7967776     -2.0800348      3582.5978      1.1450715      0.021889614    0.55462547   
     64000  -3.7559946     -2.0990214      3612.5182      1.105205       0.049799907    0.55003183   
     64100  -3.7565062     -2.057526       3623.4537      1.1332238      0.017484552    0.54837184   
     64200  -3.6729866     -1.9768568      3670.5124      1.1313226      0.060281528    0.54134131   
     64300  -3.6529965     -1.9746548      3693.0772      1.1194578      0.031356626    0.5380337    
     64400  -3.7074839     -1.9784783      3635.2534      1.1532508      0.11789578     0.54659189   
     64500  -3.7363295     -2.0026282      3649.9025      1.1563828     -0.031045848    0.54439811   
     64600  -3.7655183     -2.0503373      3625.5772      1.1440298     -0.053721116    0.54805066   
     64700  -3.8346814     -2.1061092      3539.3986      1.1529617      0.042445543    0.56139482   
     64800  -3.8421671     -2.134482       3499.6106      1.13903        0.040090966    0.56777746   
     64900  -3.8960198     -2.1394588      3448.2918      1.1716304      0.11833481     0.57622734   
     65000  -3.8919009     -2.2055172      3449.0201      1.1248219      0.071851783    0.57610566   
     65100  -3.9219546     -2.2648889      3411.1267      1.1052667      0.054366743    0.58250548   
     65200  -3.9822888     -2.2556933      3398.6857      1.1516433      0.068558006    0.58463776   
     65300  -3.9132233     -2.2023237      3433.6628      1.141174       0.068058169    0.57868233   
     65400  -3.8897924     -2.1605211      3459.9941      1.153428       0.048152316    0.57427843   
     65500  -3.8744677     -2.1552397      3459.6837      1.1467291      0.14731074     0.57432997   
     65600  -3.8790635     -2.1218576      3453.3401      1.1720605      0.13458005     0.57538497   
     65700  -3.7478224     -2.0986942      3629.7079      1.0999724     -0.07136435     0.54742697   
     65800  -3.7541278     -2.0135857      3612.2491      1.1609457      0.069135882    0.55007281   
     65900  -3.7606627     -2.0081046      3588.9123      1.1689603      0.0085965038   0.55364963   
     66000  -3.7569953     -2.0422481      3566.4498      1.1437404      0.14130924     0.55713669   
     66100  -3.8077726     -2.0827744      3540.0279      1.1505778      0.04903742     0.56129501   
     66200  -3.8932339     -2.1144068      3453.843       1.1864819      0.13725223     0.57530119   
     66300  -3.9168923     -2.2013521      3444.4026      1.1442693      0.11047676     0.57687798   
     66400  -3.9830317     -2.2451048      3373.0696      1.1592013      0.1241626      0.58907768   
     66500  -3.9181938     -2.2681614      3424.3242      1.1005755      0.13786227     0.58026049   
     66600  -3.9584324     -2.2568406      3415.7048      1.1349657     -0.090024584    0.58172474   
     66700  -3.9445981     -2.2189088      3408.1648      1.1510389      0.0080475105   0.58301171   
     66800  -3.8023695     -2.1327598      3531.3144      1.1136336     -0.009485416    0.56268      
     66900  -3.8063915     -2.0829644      3513.1978      1.1495299      0.0057339156   0.56558159   
     67000  -3.7798963     -2.0946439      3539.8707      1.1240673      0.0872628      0.56131993   
     67100  -3.8400563     -2.122317       3511.7337      1.1457362      0.010966447    0.56581739   
     67200  -3.8877074     -2.1765189      3479.3492      1.1413668      0.049815755    0.5710838    
     67300  -3.9404993     -2.2024428      3415.4689      1.1592877      0.11387715     0.58176493   
     67400  -3.9114383     -2.2793691      3465.6663      1.088594       0.011260377    0.57333852   
     67500  -3.9783486     -2.3141506      3407.7434      1.110024       0.026261422    0.58308381   
     67600  -3.946473      -2.2595216      3392.9891      1.1252005      0.14088765     0.58561934   
     67700  -3.931213      -2.2221203      3396.4602      1.1399688      0.11884473     0.58502085   
     67800  -3.8978869     -2.2127619      3436.2947      1.1239823      0.16977107     0.57823912   
     67900  -3.8688517     -2.1738027      3492.635       1.1306016      0.089343434    0.56891145   
     68000  -3.8070079     -2.1132839      3524.7132      1.1297179      0.17313291     0.5637338    
     68100  -3.8516907     -2.0696675      3529.0847      1.1886137      0.07199542     0.5630355    
     68200  -3.8292164     -2.0637703      3539.5798      1.1775567     -0.05443873     0.56136607   
     68300  -3.7720291     -2.0697296      3567.5548      1.1354378      0.049190845    0.55696411   
     68400  -3.7503763     -2.0500057      3570.0027      1.1341512      0.11508693     0.55658221   
     68500  -3.7797802     -1.9777671      3564.9167      1.201947       0.11229996     0.55737628   
     68600  -3.6971292     -1.9660288      3605.5211      1.154648       0.16696917     0.55109926   
     68700  -3.729075      -2.0144576      3601.1156      1.1436538      0.12629891     0.55177346   
     68800  -3.7952458     -2.0743043      3563.0706      1.147872       0.035497399    0.55766507   
     68900  -3.813081      -2.085473       3547.9102      1.1523185      0.12396531     0.56004799   
     69000  -3.8260437     -2.0678697      3537.1758      1.1727062      0.082278229    0.5617476    
     69100  -3.776142      -2.035032       3601.0322      1.1613244      0.0097109954   0.55178623   
     69200  -3.7268279     -1.9438713      3641.0959      1.1892362     -0.0011052464   0.54571482   
     69300  -3.6873518     -1.957654       3645.3272      1.1537125      0.15296449     0.54508139   
     69400  -3.6979808     -2.001598       3648.098       1.1314913      0.043766518    0.54466739   
     69500  -3.7596286     -2.0459801      3550.996       1.1430075      0.18204265     0.55956132   
     69600  -3.8543564     -2.0760935      3505.3747      1.1861055      0.091862491    0.56684382   
     69700  -3.8733635     -2.1079403      3496.1044      1.1775414      0.045168132    0.56834687   
     69800  -3.8828378     -2.1381291      3494.6357      1.1637248      0.057066778    0.56858573   
     69900  -3.8326646     -2.1492579      3510.8465      1.1228362      0.10238393     0.56596037   
     70000  -3.8427948     -2.1361262      3490.3773      1.138352       0.046926758    0.56927943   
     70100  -3.8498933     -2.1449429      3499.4658      1.137206       0.061143645    0.56780094   
     70200  -3.8348756     -2.1327245      3523.2668      1.1353388      0.01820139     0.56396525   
     70300  -3.8012451     -2.0884841      3534.471       1.1424157      0.06238646     0.56217749   
[...]
    303900  -3.7915179     -2.0451516      3566.4669      1.1648304      0.046919416    0.55713401   
    304000  -3.7321753     -2.0533634      3602.9609      1.1197715      0.127642       0.55149086   
    304100  -3.7415965     -2.0485825      3628.4741      1.1292444      0.036801691    0.54761311   
    304200  -3.7431236     -2.0130421      3609.2285      1.1539684      0.17847417     0.55053318   
    304300  -3.6925371     -1.9211819      3647.609       1.1814981      0.12101087     0.54474041   
    304400  -3.645197      -1.9382543      3690.8358      1.1385348      0.12382213     0.53836045   
    304500  -3.7122587     -1.9818181      3639.6865      1.1542079      0.099690756    0.54592615   
    304600  -3.7619834     -2.0228829      3583.4428      1.1599841      0.10513008     0.55449469   
    304700  -3.7961814     -2.0650537      3564.216       1.1546662      0.027211596    0.55748586   
    304800  -3.7720913     -2.0950028      3609.3811      1.118622      -0.064890875    0.55050989   
    304900  -3.7626962     -2.0796771      3598.6721      1.1225777      0.066901488    0.55214811   
    305000  -3.8134168     -2.053647       3556.2862      1.1737706      0.070928012    0.55872893   
    305100  -3.7619291     -2.0532258      3591.4505      1.1397091      0.049920062    0.55325836   
    305200  -3.7874563     -2.0436902      3590.0008      1.1630961     -0.00045883697  0.55348178   
    305300  -3.8155625     -2.0848231      3569.8822      1.1544073      0.012229522    0.556601     
    305400  -3.8236431     -2.1259615      3539.8881      1.1323576      0.072118441    0.56131718   
    305500  -3.8623506     -2.1326439      3503.5139      1.1537185      0.055752323    0.56714489   
    305600  -3.856167      -2.1617582      3530.4862      1.1301747     -0.063253161    0.56281201   
    305700  -3.8768774     -2.1809591      3451.8097      1.1311815      0.093212186    0.57564008   
    305800  -3.9231447     -2.2137329      3463.404       1.1401817      0.008297583    0.57371302   
    305900  -3.8911016     -2.2013037      3457.5148      1.1270992      0.083997904    0.57469024   
    306000  -3.8377721     -2.1292         3493.1315      1.1396216     -0.031464817    0.56883057   
    306100  -3.7972155     -2.102097       3508.3915      1.130648       0.10104985     0.56635641   
    306200  -3.7860485     -2.09521        3577.5758      1.1277933     -0.023085752    0.55540403   
    306300  -3.8051676     -2.0952221      3551.2956      1.1405377      0.14985856     0.5595141    
    306400  -3.8640321     -2.1313119      3481.8612      1.1557285      0.18692496     0.5706718    
    306500  -3.8726522     -2.1723079      3498.496       1.1341336      0.058032408    0.56795834   
    306600  -3.8676961     -2.1803298      3497.5164      1.1254773      0.10089863     0.56811742   
    306700  -3.8561349     -2.1043996      3506.2051      1.1684116      0.13048385     0.56670957   
    306800  -3.7649926     -2.0704585      3573.1853      1.1302582      0.085102272    0.55608647   
    306900  -3.7854446     -2.0546396      3568.2409      1.154451       0.075896029    0.55685703   
    307000  -3.8131359     -2.0681515      3545.2728      1.1639087      0.0019199495   0.56046463   
    307100  -3.8817405     -2.1347173      3454.9471      1.1652686      0.14276689     0.57511734   
    307200  -3.9572085     -2.2034895      3386.1724      1.1697347      0.1432119      0.58679825   
    307300  -3.9015936     -2.2152364      3441.1857      1.1248043      0.10315573     0.57741726   
    307400  -3.8404347     -2.1721776      3508.2218      1.1127314      0.033825623    0.5663838    
    307500  -3.8148844     -2.1150059      3511.2792      1.133823       0.071193038    0.56589063   
    307600  -3.8657876     -2.1058149      3494.7232      1.1739059      0.03946139     0.5685715    
    307700  -3.8902988     -2.1416403      3463.2625      1.1663593      0.057339903    0.57373647   
    307800  -3.8693488     -2.1720009      3480.4298      1.132135       0.041977324    0.5709065    
    307900  -3.8701314     -2.1796826      3466.3123      1.1275333      0.041729614    0.57323168   
    308000  -3.8740997     -2.171141       3490.0769      1.1358774      0.023441111    0.56932843   
    308100  -3.8530835     -2.1174783      3469.397       1.1576527      0.14688984     0.572722     
    308200  -3.8012573     -2.0942328      3556.3203      1.1385894     -0.042860375    0.55872357   
    308300  -3.8026252     -2.0554605      3517.7951      1.165363       0.12434066     0.56484245   
    308400  -3.7769215     -2.0557377      3531.6296      1.1480336      0.075618518    0.56262979   
    308500  -3.8030246     -2.1006656      3511.855       1.1354775      0.141971       0.56579784   
    308600  -3.9404915     -2.1980092      3434.5992      1.1622398      0.1138804      0.57852457   
    308700  -3.9007841     -2.218865       3478.6841      1.121844       0.0034971331   0.571193     
    308800  -3.8819174     -2.1794556      3457.1888      1.1355461      0.016107039    0.57474442   
    308900  -3.8744933     -2.1381811      3481.1271      1.1581243      0.0044991359   0.57079215   
    309000  -3.8290842     -2.1086897      3529.1939      1.1475072      0.0036333874   0.56301809   
    309100  -3.7868238     -2.0874454      3591.5006      1.1334894     -0.027937377    0.55325064   
    309200  -3.8045132     -2.0817938      3528.0166      1.1490579      0.003106088    0.56320597   
    309300  -3.8236811     -2.0976431      3512.3587      1.1512714      0.14362964     0.56571671   
    309400  -3.8560335     -2.0983153      3505.374       1.1724022      0.097813427    0.56684394   
    309500  -3.8145726     -2.1036557      3553.4768      1.1411856     -0.06432085     0.55917067   
    309600  -3.8483106     -2.1318027      3513.0069      1.1449148     -0.04462898     0.56561233   
    309700  -3.8899766     -2.1812986      3440.2315      1.1396922      0.063257639    0.57757742   
    309800  -3.9064826     -2.2170666      3456.3267      1.1268445      0.11926169     0.57488779   
    309900  -3.8876333     -2.1819994      3450.8596      1.1376618      0.11130126     0.57579857   
    310000  -3.810967      -2.0979226      3545.0033      1.1426047      0.0016919707   0.56050724   
    310100  -3.7798417     -2.0793842      3569.0072      1.1342092      0.12289849     0.55673746   
    310200  -3.7645574     -2.0696888      3592.6893      1.1304813     -0.010626117    0.55306759   
    310300  -3.7382664     -2.069167       3617.5883      1.1132932     -0.12191443     0.54926095   
    310400  -3.7333317     -2.0404385      3639.1882      1.1291638     -0.11523889     0.5460009    
    310500  -3.7485622     -1.9865592      3573.5533      1.1752602      0.17262987     0.5560292    
    310600  -3.7104918     -1.984546       3621.2249      1.1512099      0.077498699    0.54870936   
    310700  -3.804264      -2.0527865      3555.4678      1.1682396      0.095312287    0.55885755   
    310800  -3.8358176     -2.1144141      3555.4848      1.1481802      0.057783191    0.55885487   
    310900  -3.8839599     -2.1322188      3483.7922      1.1684154     -0.023565462    0.5703555    
    311000  -3.8879826     -2.1652886      3510.1461      1.149041      -0.020318165    0.5660733    
    311100  -3.8961131     -2.1879614      3449.1594      1.1393412      0.12105404     0.57608239   
    311200  -3.9204022     -2.2186679      3424.3811      1.1350608      0.20411156     0.58025084   
    311300  -3.8883215     -2.2020588      3474.1177      1.1247412     -0.010856508    0.57194377   
    311400  -3.8620146     -2.1194343      3485.053       1.1623052      0.09523834     0.57014915   
    311500  -3.8053692     -2.0733154      3555.7657      1.1552839      0.023359908    0.55881072   
    311600  -3.7606092     -2.0321272      3583.5305      1.1529016      0.078878476    0.55448112   
    311700  -3.7307521     -2.0115292      3599.9813      1.1467257      0.087083017    0.55194731   
    311800  -3.7243856     -2.0091488      3569.9853      1.144067       0.18534878     0.55658493   
    311900  -3.8012217     -2.1026909      3510.689       1.132924       0.10233841     0.56598576   
    312000  -3.8540177     -2.1594576      3514.0678      1.1302755     -0.022749717    0.56544156   
    312100  -3.9005102     -2.1634007      3446.4351      1.1586561      0.13301755     0.57653777   
    312200  -3.9353462     -2.171118       3417.6583      1.1767444      0.15214988     0.58139223   
    312300  -3.8755126     -2.1977461      3449.0933      1.1190742      0.10152009     0.57609343   
    312400  -3.9128959     -2.190355       3454.4997      1.1489388      0.08086922     0.57519182   
    312500  -3.8692129     -2.1437358      3501.5089      1.1508973      0.079204294    0.56746964   
    312600  -3.8362951     -2.0855236      3525.9827      1.1677687      0.068655525    0.56353085   
    312700  -3.7896384     -2.0797124      3542.7048      1.1405246      0.063678653    0.56087089   
    312800  -3.7795316     -2.1154012      3554.2563      1.1099789      0.032110202    0.55904804   
    312900  -3.8309511     -2.1778654      3484.8665      1.102612       0.16778051     0.57017966   
    313000  -3.9331541     -2.2383738      3404.9102      1.1304224      0.15288602     0.58356899   
    313100  -3.9234227     -2.2496275      3450.6782      1.1164253      0.099967408    0.57582883   
    313200  -3.8937566     -2.1982756      3453.1814      1.1308898      0.050144989    0.57541141   
    313300  -3.8983282     -2.1877466      3455.9824      1.1409619      0.13758253     0.57494505   
    313400  -3.8348406     -2.1637573      3508.5013      1.1146165      0.12377554     0.56633868   
    313500  -3.8230206     -2.0889935      3542.336       1.1566002      0.0104514      0.56092928   
    313600  -3.7527995     -2.0616607      3604.8676      1.1279935      0.07245457     0.55119917   
    313700  -3.7626921     -2.0420462      3592.6009      1.1476749     -0.0012160811   0.55308119   
    313800  -3.7464547     -2.0239522      3620.3316      1.1489133     -0.043533445    0.54884476   
    313900  -3.7042761     -1.9873129      3623.4601      1.1452185      0.090107229    0.54837087   
    314000  -3.6805663     -1.9676733      3630.4388      1.1425037      0.065799451    0.54731677   
    314100  -3.6839018     -1.9859568      3621.6483      1.1325333      0.11977257     0.54864521   
    314200  -3.7067839     -2.0312652      3612.3845      1.1175749      0.14699561     0.55005219   
    314300  -3.7741382     -2.052617       3595.6019      1.1482587     -0.065100993    0.55261958   
    314400  -3.8359423     -2.1169266      3484.7037      1.1465875      0.16938088     0.5702063    
    314500  -3.9146079     -2.1713574      3457.9553      1.1627522     -0.024825235    0.57461703   
    314600  -3.9345631     -2.1851698      3419.9434      1.1668494     -0.011635271    0.58100377   
    314700  -3.9493479     -2.2178879      3406.0577      1.1548879      0.10132412     0.58337238   
    314800  -3.9436404     -2.2657689      3443.4464      1.1191442      0.11926666     0.57703818   
    314900  -3.9424165     -2.3048103      3445.11        1.0922872     -0.04795976     0.57675953   
    315000  -3.9092816     -2.2707052      3457.2775      1.0929343     -0.025083733    0.57472969   
    315100  -3.9362518     -2.1999081      3441.8053      1.1581453      0.052597452    0.5773133    
    315200  -3.8406948     -2.1703894      3496.1102      1.1140976      0.072208711    0.56834592   
    315300  -3.8694618     -2.1093926      3504.8114      1.1739703     -0.064825681    0.56693493   
    315400  -3.7885888     -2.0967805      3596.1333      1.1284401      0.0039462988   0.55253792   
    315500  -3.8185448     -2.0530956      3587.7502      1.1775588      0.039357224    0.55382896   
    315600  -3.7779018     -2.0235806      3565.1525      1.1701363      0.16322276     0.55733941   
    315700  -3.7572036     -2.0238364      3572.7255      1.15616       -0.0035812241   0.55615803   
    315800  -3.734224      -2.0495074      3629.6279      1.12371       -0.020804126    0.54743904   
    315900  -3.7618215     -2.0444723      3551.9881      1.1454759      0.22765596     0.55940503   
    316000  -3.8167857     -2.0519384      3553.3871      1.1771573      0.036052016    0.55918479   
    316100  -3.8672848     -2.1284007      3494.2251      1.1598397      0.040600483    0.56865255   
    316200  -3.9186702     -2.1860172      3467.2488      1.1556837      0.033141545    0.57307684   
    316300  -3.9111195     -2.1702703      3489.9305      1.1611505     -0.1173522      0.5693523    
    316400  -3.8310171     -2.1403139      3525.3318      1.127703       0.0031639681   0.56363489   
    316500  -3.8241531     -2.0756133      3534.2805      1.1662801      0.0042192115   0.56220778   
    316600  -3.7927011     -2.0432977      3497.9531      1.1668561      0.24944721     0.56804649   
    316700  -3.7554276     -2.0513543      3595.83        1.1366209      0.071367785    0.55258452   
    316800  -3.7312311     -2.057513       3639.3945      1.1163739     -0.011064662    0.54596995   
    316900  -3.7863126     -2.0344215      3555.1635      1.1685155      0.1333575      0.55890538   
    317000  -3.7083271     -1.9880851      3637.6264      1.1474054      0.15221275     0.54623531   
    317100  -3.6446021     -1.9257452      3683.7996      1.1464816      0.048269581    0.53938873   
    317200  -3.6430469     -1.9022132      3702.86        1.1611402      0.090972505    0.53661224   
    317300  -3.653329      -1.8967521      3687.56        1.1716409      0.052126603    0.5388387    
    317400  -3.6833186     -1.9916441      3656.9147      1.1283509      0.10141593     0.54335422   
    317500  -3.7391058     -2.0233775      3630.5216      1.1443948      0.034819421    0.54730428   
    317600  -3.7758451     -2.041455       3562.4405      1.1568423      0.1367358      0.5577637    
    317700  -3.7703056     -2.0668679      3565.489       1.136197       0.13042608     0.55728682   
    317800  -3.7953501     -2.0503415      3533.2715      1.1639248      0.12439989     0.56236833   
    317900  -3.7106596     -2.0429545      3629.6646      1.1123632      0.04819758     0.54743351   
    318000  -3.7676844     -1.9856361      3562.1571      1.1886304      0.081053337    0.55780807   
    318100  -3.6780965     -1.9639087      3641.2293      1.1433673      0.11915536     0.54569483   
    318200  -3.6892672     -1.9659645      3650.0484      1.1494469      0.041303328    0.54437635   
    318300  -3.7446369     -2.0385834      3585.6871      1.1379417      0.0338226      0.55414763   
    318400  -3.8294904     -2.0719321      3524.2952      1.1722955     -0.041368935    0.56380068   
    318500  -3.8665735     -2.1043666      3481.0586      1.1753962      0.066668348    0.57080338   
    318600  -3.8426123     -2.1326527      3515.9547      1.1405471     -0.0071984203   0.56513811   
    318700  -3.8425405     -2.154278       3482.1573      1.126075       0.092439637    0.57062327   
    318800  -3.9004861     -2.1931346      3488.1772      1.1388074      0.057873478    0.56963849   
    318900  -3.9104003     -2.2069452      3447.1235      1.1362085      0.13792705     0.57642264   
    319000  -3.9160225     -2.1349182      3426.2629      1.1880008      0.18771753     0.57993215   
    319100  -3.810698      -2.0945947      3573.8376      1.1446449      0.011274992    0.55598497   
    319200  -3.7504713     -2.04451        3594.3201      1.1378802      0.14678936     0.55281665   
    319300  -3.738506      -2.0184025      3624.5553      1.147313      -0.034407597    0.54820519   
    319400  -3.7359192     -1.9927166      3643.5044      1.1627203      0.034460245    0.54535409   
    319500  -3.6430337     -1.915214       3700.1072      1.1524599      0.13941832     0.53701147   
    319600  -3.5751401     -1.8735442      3772.8405      1.1349685      0.062536174    0.52665889   
    319700  -3.6062629     -1.8632006      3769.7639      1.1626266      0.046837826    0.52708871   
    319800  -3.6267635     -1.8980872      3743.5184      1.1530312      0.042240923    0.53078409   
    319900  -3.680889      -1.9681883      3667.6586      1.1423754      0.057774204    0.54176253   
    320000  -3.7012336     -1.9956396      3629.9437      1.1376352      0.048246052    0.54739141   
    320100  -3.7572203     -2.0364603      3569.7852      1.1477509      0.088636578    0.55661612   
    320200  -3.8024707     -2.0760078      3541.7055      1.1515549      0.063321928    0.56102915   
    320300  -3.8410772     -2.1011824      3501.053       1.1605139      0.05062735     0.56754353   
    320400  -3.8114752     -2.1328507      3504.6716      1.1196465      0.085305107    0.56695754   
    320500  -3.8041201     -2.1388384      3550.2789      1.1107468      0.0016236874   0.55967434   
    320600  -3.82059       -2.0918567      3538.4079      1.1530691     -0.0080229797   0.56155199   
    320700  -3.8155483     -2.0279335      3542.8702      1.1923432      0.064646509    0.5608447    
    320800  -3.6330651     -1.910243       3710.4263      1.1491264      0.080510344    0.53551798   
    320900  -3.6468046     -1.8733131      3696.9568      1.182923       0.071580492    0.53746908   
    321000  -3.6275801     -1.9002124      3728.6622      1.1521583      0.043692202    0.5328989    
    321100  -3.6999755     -1.9621492      3647.7535      1.1591342      0.16840463     0.54471882   
    321200  -3.7435279     -2.0143475      3582.9039      1.1533674      0.17890596     0.55457809   
    321300  -3.7512471     -2.055001       3593.2061      1.1314001      0.050639611    0.55298804   
    321400  -3.8214813     -2.0938822      3574.026       1.1523127      0.030012903    0.55595566   
    321500  -3.8579617     -2.0862187      3514.3486      1.1817567      0.017897009    0.56539639   
    321600  -3.7975696     -2.0450415      3507.4635      1.1689404      0.19582473     0.56650624   
    321700  -3.7243148     -1.965129       3641.1372      1.173381      -0.015964217    0.54570863   
    321800  -3.6865372     -1.9428276      3669.3479      1.1630584      0.088365989    0.54151312   
    321900  -3.67368       -1.944903       3697.3287      1.1530984      0.047226989    0.53741503   
    322000  -3.6968406     -1.9694763      3634.2516      1.1521561      0.15690294     0.54674256   
    322100  -3.7416768     -2.0342056      3615.9162      1.1388873      0.087300238    0.54951495   
    322200  -3.7799051     -2.0633364      3562.9201      1.1449554      0.1406216      0.55768862   
    322300  -3.8140495     -2.0666365      3557.785       1.1655286      0.086035564    0.55849356   
    322400  -3.7641265     -2.0335448      3587.198       1.1543021      0.11060461     0.55391423   
    322500  -3.725544      -1.9687364      3614.0731      1.1717948      0.078900381    0.54979518   
    322600  -3.7029084     -1.9540359      3668.7162      1.1665021      0.0037562793   0.54160635   
    322700  -3.6845298     -1.9489545      3667.6684      1.1576328      0.089497341    0.54176108   
    322800  -3.7353956     -1.9617653      3630.0697      1.1830156      0.16142973     0.54737241   
    322900  -3.6616257     -2.0083451      3722.4684      1.1027421      0.027686297    0.53378559   
    323000  -3.6848494     -1.9894579      3703.5686      1.1308302     -0.0624833      0.53650957   
    323100  -3.6748892     -1.9359605      3686.11        1.1598696      0.0060169438   0.53905065   
    323200  -3.6432365     -1.9012705      3718.5201      1.1618955      0.048287622    0.53435236   
    323300  -3.6936088     -1.9357467      3655.1375      1.1724981      0.043609504    0.5436184    
    323400  -3.7371895     -2.0213792      3637.5928      1.1444495      0.048252644   