ITEM: TIMESTEP
0
ITEM: NUMBER OF ATOMS
270
ITEM: BOX BOUNDS pp pp pp
-1.0000000000000000e+01 1.0000000000000000e+01
-1.0000000000000000e+01 1.0000000000000000e+01
-1.0000000000000000e+01 1.0000000000000000e+01
ITEM: ATOMS id type xs ys zs
3 1 0.104733 0.231809 0.049628
16 1 0.143585 0.154589 0.244429
119 1 0.133115 0.111327 0.115205
13 1 0.287628 0.107306 0.116343
34 1 0.343316 0.20598 0.180237
27 1 0.460865 0.105796 0.193858
28 1 0.589725 0.202747 0.007811
132 1 0.498476 0.0682315 0.0377725
5 1 0.619572 0.116771 0.151773
11 1 0.633128 0.248945 0.213403
134 1 0.655117 0.0381285 0.0297915
224 1 0.778927 0.166591 0.157045
31 1 0.982416 0.0466985 0.160319
129 1 0.914762 0.194813 0.189657
131 1 0.901703 0.124307 0.0291805
6 1 0.004554 0.468054 0.074544
17 1 0.0586555 0.28843 0.216455
21 1 0.125683 0.396894 0.118773
2 1 0.298919 0.491853 0.077222
7 1 0.259819 0.354912 0.17732
80 1 0.362245 0.42735 0.193391
155 1 0.306313 0.2906 0.060818
4 1 0.567113 0.367941 0.157743
120 1 0.440025 0.313551 0.217598
127 1 0.434748 0.369306 0.073296
67 1 0.642521 0.454371 0.237679
124 1 0.610211 0.400633 0.023143
191 1 0.699466 0.300868 0.0773245
196 1 0.768045 0.47943 0.220554
54 1 0.989226 0.481703 0.024299
117 1 0.968959 0.257416 0.0960625
123 1 0.927272 0.476102 0.244097
144 1 0.842537 0.364029 0.20723
188 1 0.854421 0.340714 0.071274
8 1 0.0643285 0.0680215 0.44899
18 1 0.025057 0.0522625 0.291579
36 1 0.1287 0.201656 0.411288
12 1 0.250878 0.113066 0.373534
14 1 0.247539 0.0355505 0.255353
24 1 0.301347 0.21211 0.301085
25 1 0.37366 0.147797 0.454705
135 1 0.55742 0.176001 0.303741
139 1 0.447001 0.085715 0.352506
200 1 0.519784 0.209239 0.489692
122 1 0.74877 0.157616 0.361727
146 1 0.778819 0.080002 0.257471
203 1 0.660392 0.239697 0.433652
255 1 0.637463 0.088947 0.376474
143 1 0.885129 0.021907 0.289554
205 1 0.895907 0.133141 0.389375
20 1 0.198201 0.357069 0.31623
56 1 0.053917 0.3351 0.350111
141 1 0.131521 0.421642 0.459894
22 1 0.33655 0.48457 0.381447
60 1 0.220118 0.48726 0.306723
166 1 0.315227 0.34162 0.386358
15 1 0.541151 0.382552 0.389711
32 1 0.473313 0.271786 0.347599
165 1 0.47178 0.484474 0.477999
147 1 0.76446 0.284979 0.286476
168 1 0.73609 0.423694 0.485144
236 1 0.68179 0.362535 0.367312
9 1 0.958862 0.446969 0.379499
115 1 0.899149 0.260466 0.343284
150 1 0.952395 0.340099 0.459528
19 1 0.0713905 0.23044 0.670092
29 1 0.0299845 0.003016 0.690285
35 1 0.152386 0.069378 0.60847
76 1 0.035277 0.181526 0.54378
104 1 0.094904 0.12233 0.747117
46 1 0.313866 0.0608665 0.659015
106 1 0.264053 0.200819 0.616034
133 1 0.384481 0.0600745 0.554516
226 1 0.387676 0.228803 0.567949
33 1 0.513579 0.0008645 0.598232
121 1 0.548146 0.149758 0.623839
156 1 0.486908 0.0937435 0.74272
136 1 0.738809 0.0522185 0.591943
140 1 0.620794 0.085272 0.517845
145 1 0.701895 0.134129 0.685251
130 1 0.807073 0.235333 0.721802
138 1 0.946016 0.141445 0.593812
148 1 0.817939 0.13917 0.517216
149 1 0.905042 0.125773 0.718964
164 1 0.984611 0.016666 0.572491
173 1 0.83531 0.008823 0.670859
45 1 0.0957255 0.344042 0.593525
64 1 0.186957 0.271911 0.52337
73 1 0.052426 0.451352 0.676464
23 1 0.358698 0.486593 0.577911
62 1 0.222644 0.329869 0.70214
75 1 0.284624 0.474497 0.687632
125 1 0.307964 0.353845 0.539145
10 1 0.447483 0.343568 0.614777
160 1 0.570099 0.398148 0.553701
170 1 0.526764 0.304447 0.72993
239 1 0.575578 0.432371 0.734068
116 1 0.728073 0.256404 0.547704
163 1 0.618989 0.284382 0.621984
242 1 0.795494 0.482488 0.717152
126 1 0.892114 0.411443 0.630088
233 1 0.849626 0.338512 0.537016
101 1 0.121616 0.220746 0.917635
103 1 0.128097 0.0026675 0.903897
26 1 0.279631 0.189708 0.753812
37 1 0.369596 0.0850165 0.989862
39 1 0.301695 0.044585 0.870723
44 1 0.368761 0.209738 0.907133
48 1 0.206894 0.130874 0.859484
38 1 0.552235 0.065774 0.943419
49 1 0.590721 0.114357 0.831146
142 1 0.418829 0.204764 0.776652
47 1 0.719288 0.211077 0.838729
137 1 0.667945 0.027597 0.768754
176 1 0.780171 0.135322 0.920108
162 1 0.958258 0.0373145 0.996078
174 1 0.890342 0.0804195 0.838692
177 1 0.926128 0.237446 0.932033
245 1 0.982218 0.246411 0.806483
30 1 0.184605 0.302996 0.822658
40 1 0.165774 0.39149 0.923485
113 1 0.0302805 0.418295 0.975993
153 1 0.053213 0.330218 0.788502
41 1 0.343255 0.350782 0.782519
178 1 0.310493 0.32451 0.919895
249 1 0.382732 0.495697 0.797913
259 1 0.315107 0.479511 0.904724
152 1 0.692169 0.423977 0.790482
171 1 0.7172 0.34534 0.889619
151 1 0.894734 0.387352 0.899732
161 1 0.885607 0.344012 0.758673
1 1 0.172061 0.536747 0.18453
55 1 0.0229315 0.690558 0.0533135
61 1 0.112962 0.572942 0.059883
68 1 0.004119 0.745612 0.189997
52 1 0.29174 0.643443 0.0813735
187 1 0.205166 0.676344 0.186853
63 1 0.470156 0.746367 0.159391
118 1 0.49798 0.584892 0.01868
181 1 0.464894 0.618966 0.159646
128 1 0.639876 0.549997 0.030993
195 1 0.72848 0.677798 0.0154905
206 1 0.616681 0.741942 0.10991
208 1 0.773579 0.543555 0.0902925
229 1 0.612549 0.588983 0.167031
158 1 0.906841 0.588559 0.186529
183 1 0.968449 0.713722 0.0206275
204 1 0.812991 0.691872 0.133885
51 1 0.021697 0.867571 0.021721
65 1 0.023655 0.965021 0.127242
69 1 0.162129 0.777559 0.085017
189 1 0.0869515 0.831178 0.205163
194 1 0.163 0.989302 0.186078
59 1 0.350083 0.804239 0.124586
182 1 0.378272 0.967443 0.0899195
184 1 0.292435 0.768106 0.238517
199 1 0.219801 0.898992 0.076939
190 1 0.531712 0.81259 0.0051835
207 1 0.550389 0.883721 0.176076
228 1 0.436691 0.915638 0.237663
179 1 0.707163 0.852838 0.119601
216 1 0.790086 0.906707 0.235108
222 1 0.66029 0.928278 0.0050615
211 1 0.923905 0.802035 0.120965
217 1 0.823012 0.86496 0.0518415
53 1 0.0201725 0.649421 0.333758
57 1 0.123845 0.704388 0.31236
58 1 0.0472525 0.502222 0.251121
159 1 0.067584 0.556477 0.460343
167 1 0.187606 0.599685 0.384385
87 1 0.309295 0.657074 0.347778
202 1 0.397095 0.564844 0.271002
91 1 0.480668 0.592149 0.379153
219 1 0.406893 0.646946 0.48845
221 1 0.451693 0.749562 0.29527
241 1 0.567906 0.656626 0.297832
157 1 0.625586 0.518552 0.362008
193 1 0.766999 0.546564 0.359823
225 1 0.754788 0.695226 0.278596
114 1 0.868403 0.502142 0.45966
201 1 0.843981 0.665491 0.401095
235 1 0.944363 0.633807 0.311332
70 1 0.0177465 0.927736 0.341178
77 1 0.0864445 0.826459 0.39286
99 1 0.195041 0.977167 0.486727
71 1 0.209588 0.865403 0.402533
84 1 0.294957 0.764727 0.432374
85 1 0.388816 0.870659 0.491295
180 1 0.263717 0.92149 0.283207
198 1 0.504892 0.83395 0.38078
218 1 0.517278 0.960041 0.473632
66 1 0.640969 0.890469 0.274964
213 1 0.78685 0.994457 0.368441
230 1 0.648115 0.756625 0.366056
247 1 0.766101 0.869092 0.437632
185 1 0.948655 0.769072 0.264141
186 1 0.832192 0.803741 0.31832
265 1 0.891463 0.950852 0.487744
88 1 0.0969 0.703669 0.507406
90 1 0.012906 0.654974 0.602697
238 1 0.128877 0.567272 0.626283
79 1 0.305153 0.578126 0.500997
98 1 0.267733 0.646888 0.640823
100 1 0.218223 0.73952 0.551687
43 1 0.547511 0.588705 0.557387
72 1 0.41116 0.664845 0.726556
220 1 0.435971 0.572813 0.645628
243 1 0.597897 0.631915 0.707515
269 2 0.45 0.5 0.5
270 3 0.55 0.5 0.5
172 1 0.645994 0.511574 0.621204
197 1 0.732124 0.566632 0.515117
209 1 0.787509 0.583723 0.648581
232 1 0.659926 0.682137 0.507705
254 1 0.752279 0.664118 0.748607
223 1 0.964917 0.52731 0.571072
253 1 0.897512 0.645388 0.559422
74 1 0.004754 0.835554 0.52122
82 1 0.100069 0.862146 0.643247
96 1 0.0964225 0.752675 0.714484
97 1 0.117393 0.973118 0.729119
92 1 0.365591 0.792593 0.687759
112 1 0.226383 0.864482 0.589704
248 1 0.268386 0.95921 0.696018
227 1 0.520028 0.760195 0.65639
231 1 0.498591 0.79048 0.517173
240 1 0.407691 0.900216 0.620476
267 1 0.556427 0.915911 0.661458
215 1 0.679048 0.96233 0.501182
234 1 0.750179 0.942166 0.667327
250 1 0.663375 0.829248 0.60058
260 1 0.794799 0.801583 0.683618
192 1 0.800764 0.77714 0.540347
210 1 0.949881 0.832079 0.547077
214 1 0.944318 0.916654 0.703788
237 1 0.911376 0.774201 0.720223
42 1 0.186252 0.558897 0.895062
50 1 0.061507 0.728524 0.95275
81 1 0.102525 0.626464 0.779419
93 1 0.188862 0.710056 0.942119
107 1 0.0364355 0.5026 0.829943
94 1 0.259917 0.650154 0.775699
102 1 0.340477 0.638416 0.92279
78 1 0.464726 0.733854 0.924199
108 1 0.500958 0.655369 0.827193
175 1 0.520665 0.515309 0.838279
258 1 0.554947 0.505386 0.972821
256 1 0.738422 0.557757 0.870023
261 1 0.668722 0.609859 0.975319
268 1 0.624341 0.720992 0.903674
154 1 0.89721 0.531147 0.795977
244 1 0.849206 0.549635 0.943811
246 1 0.854033 0.683513 0.968608
252 1 0.889204 0.681174 0.823569
83 1 0.006367 0.814072 0.851233
95 1 0.197804 0.796239 0.821433
105 1 0.045641 0.960797 0.958846
110 1 0.161052 0.939754 0.863883
89 1 0.297712 0.870823 0.784278
111 1 0.306542 0.953887 0.970897
86 1 0.480009 0.858985 0.852435
251 1 0.440606 0.968465 0.769956
262 1 0.454859 0.924268 0.97547
109 1 0.684898 0.942647 0.894114
169 1 0.622367 0.898248 0.771309
257 1 0.746737 0.793741 0.974113
263 1 0.797143 0.838068 0.843559
266 1 0.649823 0.754921 0.785042
212 1 0.830145 0.960765 0.782891
264 1 0.924682 0.838747 0.925033
ITEM: TIMESTEP
44
ITEM: NUMBER OF ATOMS
270
ITEM: BOX BOUNDS pp pp pp
-1.0000000000000000e+01 1.0000000000000000e+01
-1.0000000000000000e+01 1.0000000000000000e+01
-1.0000000000000000e+01 1.0000000000000000e+01
ITEM: ATOMS id type xs ys zs
3 1 0.0952732 0.226373 0.0432294
16 1 0.128932 0.157376 0.249896
119 1 0.129942 0.11137 0.121456
13 1 0.294793 0.0966841 0.120922
34 1 0.365398 0.214803 0.179689
27 1 0.464958 0.107926 0.187938
28 1 0.602039 0.180439 0.0296652
132 1 0.475259 0.0852941 0.0399458
5 1 0.620631 0.112595 0.155371
11 1 0.63973 0.254019 0.203012
134 1 0.682494 0.0526782 0.017754
224 1 0.8043 0.187285 0.150454
31 1 0.986968 0.0732043 0.139865
129 1 0.939443 0.19714 0.203047
131 1 0.869041 0.151404 0.0302609
6 1 0.0353968 0.463435 0.129296
17 1 0.0649082 0.277438 0.221562
21 1 0.123502 0.357972 0.0981793
115 1 0.891259 0.247131 0.329252
7 1 0.243494 0.366595 0.162985
80 1 0.353513 0.453627 0.214196
155 1 0.347631 0.306591 0.0731363
4 1 0.561909 0.364965 0.164704
120 1 0.441146 0.343444 0.236361
127 1 0.445397 0.405867 0.0690375
67 1 0.624898 0.466442 0.237897
124 1 0.623858 0.39761 0.0281293
191 1 0.702703 0.27523 0.0733428
196 1 0.763178 0.476898 0.210224
150 1 0.947033 0.312069 0.441138
117 1 0.962067 0.275909 0.0824348
123 1 0.93633 0.461313 0.238052
144 1 0.843079 0.357894 0.204964
188 1 0.832998 0.341341 0.0628009
8 1 0.0779866 0.0811155 0.454256
18 1 0.0402432 0.0671209 0.324068
36 1 0.143084 0.203762 0.419231
12 1 0.258216 0.111746 0.377605
14 1 0.245668 0.0336522 0.248089
24 1 0.260295 0.217937 0.273653
25 1 0.390696 0.122742 0.421724
135 1 0.549649 0.165677 0.294966
139 1 0.4566 0.0330521 0.329296
200 1 0.510185 0.212656 0.487848
122 1 0.750436 0.158394 0.354566
146 1 0.744502 0.0835353 0.226782
203 1 0.678827 0.238868 0.453988
255 1 0.628328 0.0607669 0.348986
143 1 0.884759 0.0284372 0.254197
205 1 0.911034 0.115599 0.37327
20 1 0.214058 0.355023 0.306288
56 1 0.0886743 0.318347 0.356343
141 1 0.122928 0.42388 0.457271
22 1 0.345926 0.461172 0.398675
60 1 0.238947 0.498437 0.304311
166 1 0.332805 0.32355 0.384658
15 1 0.552686 0.354669 0.432681
32 1 0.458116 0.258771 0.354889
165 1 0.476406 0.446241 0.360722
147 1 0.744347 0.289141 0.287001
168 1 0.730123 0.428785 0.49741
236 1 0.676346 0.379279 0.375293
9 1 0.975573 0.442679 0.37589
114 1 0.865707 0.494372 0.447547
99 1 0.199509 0.0187312 0.475387
140 1 0.614284 0.107979 0.474944
162 1 0.917445 0.016167 0.0177841
19 1 0.0846989 0.242863 0.656323
29 1 0.0142232 0.0108206 0.686662
35 1 0.180846 0.0647063 0.611306
76 1 0.0253507 0.22452 0.527616
104 1 0.0807174 0.125219 0.737872
46 1 0.336795 0.0762375 0.668076
106 1 0.22703 0.200416 0.628735
133 1 0.393747 0.0496332 0.542686
226 1 0.396425 0.216988 0.5817
33 1 0.528049 0.0349058 0.570626
121 1 0.538976 0.157972 0.640403
156 1 0.493359 0.129892 0.763313
136 1 0.724021 0.0449328 0.548909
54 1 0.992338 0.498194 0.981791
145 1 0.687788 0.117766 0.661551
130 1 0.78353 0.219017 0.726357
138 1 0.929582 0.147138 0.58945
148 1 0.824051 0.137517 0.504038
149 1 0.893161 0.12815 0.733754
164 1 0.991958 0.035342 0.553138
173 1 0.836821 0.00337683 0.659943
45 1 0.124801 0.371843 0.594035
64 1 0.20321 0.277367 0.517025
73 1 0.0365767 0.450947 0.663328
23 1 0.346822 0.453128 0.597281
62 1 0.227981 0.343035 0.706696
75 1 0.257886 0.48248 0.697664
125 1 0.324115 0.325404 0.517807
10 1 0.455215 0.353107 0.624523
160 1 0.585343 0.37328 0.566318
170 1 0.522349 0.317341 0.741458
239 1 0.584728 0.441985 0.749067
116 1 0.761464 0.251726 0.566643
163 1 0.632378 0.270311 0.65129
242 1 0.817634 0.474332 0.726248
126 1 0.903696 0.399971 0.651144
233 1 0.847886 0.354095 0.535214
101 1 0.105471 0.217287 0.903948
103 1 0.166042 0.00558032 0.929534
26 1 0.281744 0.18331 0.767329
37 1 0.351836 0.102913 0.983503
39 1 0.325052 0.0461976 0.853722
44 1 0.387214 0.230156 0.953303
48 1 0.176033 0.117169 0.841343
38 1 0.568883 0.0286193 0.936898
49 1 0.605397 0.118753 0.836934
142 1 0.408341 0.224117 0.814187
47 1 0.711809 0.213532 0.849457
137 1 0.683523 0.0265298 0.76458
176 1 0.77355 0.12261 0.934473
251 1 0.433383 0.00600326 0.766738
174 1 0.876666 0.058043 0.868021
177 1 0.921623 0.247468 0.931045
245 1 0.987953 0.218635 0.808547
30 1 0.184843 0.310917 0.839591
40 1 0.15424 0.397367 0.961685
113 1 0.0183028 0.36468 0.943245
153 1 0.0559467 0.351104 0.777686
41 1 0.36237 0.352781 0.770375
178 1 0.305712 0.348748 0.909883
249 1 0.360238 0.492817 0.809018
259 1 0.303101 0.497087 0.936801
152 1 0.70529 0.438166 0.809644
171 1 0.707037 0.340766 0.911185
151 1 0.841788 0.370514 0.912216
161 1 0.88171 0.317228 0.767875
172 1 0.634095 0.494232 0.623892
107 1 0.0316553 0.492446 0.829292
258 1 0.51794 0.482563 0.964303
1 1 0.203577 0.529018 0.140995
55 1 0.00726943 0.648214 0.106306
61 1 0.110662 0.576466 0.0408051
68 1 0.041698 0.753839 0.194603
52 1 0.301242 0.665012 0.075402
187 1 0.177538 0.678952 0.171128
63 1 0.472011 0.769958 0.15368
118 1 0.461915 0.603122 0.00909652
181 1 0.458658 0.628662 0.149507
128 1 0.659827 0.525848 0.0739605
195 1 0.737112 0.683839 0.0354801
206 1 0.631106 0.736939 0.126538
208 1 0.799193 0.544822 0.0840161
229 1 0.58956 0.603903 0.17621
158 1 0.903132 0.59327 0.180622
183 1 0.96302 0.732341 0.00293933
204 1 0.809227 0.707561 0.158191
51 1 0.052634 0.853913 0.0522971
65 1 0.00275133 0.934377 0.161982
69 1 0.169645 0.788229 0.0651095
189 1 0.145851 0.856841 0.227496
194 1 0.16458 0.965958 0.13909
59 1 0.341531 0.787969 0.126445
182 1 0.379809 0.973521 0.126988
184 1 0.269057 0.770633 0.238814
199 1 0.26792 0.896786 0.070442
190 1 0.533739 0.81815 0.0218427
207 1 0.563344 0.888361 0.18789
228 1 0.429252 0.922747 0.252861
179 1 0.737679 0.849805 0.136427
216 1 0.759905 0.92488 0.249552
222 1 0.645421 0.908883 0.0508476
211 1 0.906112 0.810658 0.130063
217 1 0.844692 0.904837 0.0364402
53 1 0.041603 0.599291 0.344143
57 1 0.130126 0.703284 0.327842
58 1 0.0998401 0.504456 0.260444
159 1 0.0691675 0.554826 0.472882
167 1 0.22542 0.610848 0.393278
87 1 0.327521 0.693637 0.332674
202 1 0.394058 0.583604 0.269097
91 1 0.483334 0.584973 0.380027
219 1 0.425908 0.647164 0.489468
221 1 0.45698 0.756309 0.290904
241 1 0.572805 0.660928 0.304205
157 1 0.638013 0.532948 0.375601
193 1 0.768237 0.562859 0.322181
225 1 0.74531 0.695301 0.282558
215 1 0.652214 0.932819 0.479538
201 1 0.839474 0.640639 0.442698
235 1 0.918023 0.651002 0.313255
70 1 0.021525 0.924851 0.302261
77 1 0.102866 0.833176 0.388317
2 1 0.345997 0.51705 0.0747526
71 1 0.229939 0.885165 0.419804
84 1 0.326511 0.764566 0.454408
85 1 0.392196 0.893727 0.495543
180 1 0.290314 0.90726 0.294295
198 1 0.528344 0.830093 0.380688
218 1 0.509321 0.957634 0.435688
66 1 0.635132 0.917365 0.305751
213 1 0.794481 0.999045 0.39535
230 1 0.650317 0.760805 0.378777
247 1 0.759939 0.851068 0.431117
185 1 0.949625 0.787919 0.300118
186 1 0.815921 0.814916 0.309715
79 1 0.3124 0.559879 0.498068
88 1 0.115869 0.694359 0.497836
197 1 0.711817 0.582836 0.49605
262 1 0.449364 0.933723 0.989831
90 1 0.043738 0.668542 0.617562
238 1 0.123443 0.564473 0.661647
263 1 0.806051 0.806502 0.842473
98 1 0.259226 0.622109 0.621607
100 1 0.236361 0.741049 0.553847
43 1 0.566864 0.614497 0.594388
72 1 0.399025 0.657586 0.727778
220 1 0.431905 0.579727 0.62623
243 1 0.598812 0.658203 0.724571
269 2 0.45 0.5 0.5
270 3 0.55 0.5 0.5
264 1 0.914792 0.846312 0.925214
109 1 0.675344 0.934033 0.884875
209 1 0.772247 0.57118 0.640183
257 1 0.729143 0.810752 0.958169
254 1 0.743675 0.64153 0.753997
223 1 0.9566 0.528708 0.551683
253 1 0.886027 0.644822 0.590865
74 1 0.0359539 0.819022 0.5184
82 1 0.110893 0.846909 0.632093
96 1 0.0952356 0.751314 0.732209
97 1 0.136758 0.954354 0.712982
92 1 0.337232 0.771742 0.678663
112 1 0.233396 0.882833 0.573863
248 1 0.281755 0.950265 0.698915
227 1 0.509211 0.764621 0.656114
231 1 0.491798 0.771544 0.510114
240 1 0.403578 0.889983 0.631572
267 1 0.536999 0.927567 0.662698
169 1 0.570721 0.894389 0.795441
234 1 0.716412 0.917173 0.671107
250 1 0.634657 0.843872 0.581571
260 1 0.775031 0.790645 0.691043
192 1 0.796435 0.764915 0.540085
210 1 0.908982 0.846253 0.573479
214 1 0.936575 0.891505 0.722032
237 1 0.930132 0.741992 0.703753
42 1 0.169977 0.536697 0.91872
50 1 0.0545393 0.712349 0.89608
81 1 0.118012 0.606182 0.793944
93 1 0.182945 0.701412 0.956454
212 1 0.822156 0.948627 0.809989
94 1 0.27484 0.6266 0.791967
102 1 0.329045 0.646043 0.92954
78 1 0.458261 0.728416 0.910311
108 1 0.502555 0.634311 0.814637
175 1 0.494279 0.502993 0.831646
266 1 0.644167 0.781603 0.778042
256 1 0.727967 0.558563 0.869836
261 1 0.628459 0.6002 0.954066
268 1 0.612351 0.737802 0.912804
154 1 0.901435 0.537359 0.815434
244 1 0.853954 0.515446 0.952083
246 1 0.852896 0.66684 0.951283
252 1 0.868181 0.67388 0.809283
83 1 0.0265827 0.845374 0.830702
95 1 0.218864 0.75869 0.824702
105 1 0.0341157 0.954481 0.961333
110 1 0.154397 0.901241 0.836502
89 1 0.318514 0.85698 0.800208
111 1 0.300933 0.931292 0.937776
86 1 0.448962 0.864952 0.85994
232 1 0.647562 0.7146 0.509711
265 1 0.877115 0.968373 0.520298
ITEM: TIMESTEP
1000
ITEM: NUMBER OF ATOMS
270
ITEM: BOX BOUNDS pp pp pp
-1.0000000000000000e+01 1.0000000000000000e+01
-1.0000000000000000e+01 1.0000000000000000e+01
-1.0000000000000000e+01 1.0000000000000000e+01
ITEM: ATOMS id type xs ys zs
3 1 0.0167049 0.190363 0.0814189
16 1 0.100056 0.102565 0.245878
119 1 0.0655119 0.068823 0.120679
13 1 0.309315 0.074838 0.10922
34 1 0.352094 0.180754 0.200742
14 1 0.238041 0.0754813 0.259268
27 1 0.503953 0.108673 0.126177
196 1 0.794015 0.497248 0.209006
182 1 0.419447 -0.000191537 0.135835
5 1 0.685769 0.117651 0.154423
134 1 0.615981 0.0415949 0.0641583
146 1 0.677693 0.0857734 0.288519
224 1 0.811226 0.0991412 0.11877
236 1 0.627717 0.374639 0.429258
129 1 0.910442 0.20795 0.267689
2 1 0.365137 0.467936 0.0423265
9 1 0.0179235 0.384173 0.376787
6 1 0.981381 0.415987 0.166523
17 1 0.0429242 0.228471 0.254226
21 1 0.0709743 0.312291 0.135421
7 1 0.204957 0.339064 0.174595
54 1 0.983244 0.483363 0.0460462
155 1 0.346028 0.313501 0.157513
4 1 0.551739 0.399773 0.178956
120 1 0.428295 0.392609 0.236602
127 1 0.40919 0.330798 0.039327
11 1 0.603758 0.282271 0.217895
67 1 0.658257 0.465757 0.248384
124 1 0.543136 0.392403 0.040838
191 1 0.678914 0.246319 0.114355
148 1 0.820767 0.0812127 0.412765
117 1 0.888543 0.203935 0.134446
123 1 0.0495207 0.470339 0.27249
144 1 0.854396 0.377036 0.20732
188 1 0.803619 0.302825 0.103761
8 1 0.0559373 0.0702847 0.458873
18 1 0.0276102 0.0302343 0.333034
36 1 0.0819247 0.204684 0.475594
99 1 0.182483 0.0329325 0.475426
12 1 0.262935 0.111441 0.39393
24 1 0.216243 0.235224 0.264307
25 1 0.388345 0.0968749 0.434664
135 1 0.503556 0.189646 0.246112
139 1 0.469883 0.0156146 0.365376
200 1 0.454776 0.217871 0.464316
122 1 0.744771 0.183646 0.364311
203 1 0.669365 0.239945 0.470897
255 1 0.558419 0.111254 0.340984
140 1 0.571809 0.148436 0.475447
115 1 0.829987 0.306077 0.329557
143 1 0.868576 0.0143538 0.202126
205 1 0.906369 0.0804893 0.310053
56 1 0.104132 0.277324 0.365684
141 1 0.109899 0.442315 0.457772
20 1 0.211214 0.38802 0.379835
22 1 0.323734 0.432005 0.45576
58 1 0.180756 0.439713 0.259399
166 1 0.287835 0.25265 0.384195
15 1 0.493914 0.365687 0.445957
32 1 0.41573 0.271646 0.330338
165 1 0.426878 0.451544 0.361084
147 1 0.688736 0.339728 0.310641
150 1 0.892806 0.360185 0.447505
132 1 0.480756 0.194773 0.0209773
28 1 0.605729 0.274315 0.00273115
19 1 0.0311409 0.291053 0.630403
29 1 0.98023 0.041425 0.679532
35 1 0.192658 0.0231762 0.611968
76 1 0.959129 0.255563 0.515021
104 1 0.0540709 0.154818 0.717708
46 1 0.336115 0.127839 0.646762
106 1 0.194611 0.147073 0.667425
133 1 0.377051 0.0376039 0.552566
226 1 0.389361 0.233866 0.584026
33 1 0.509919 0.0335652 0.59198
121 1 0.526542 0.163607 0.656429
136 1 0.662764 0.0742742 0.579814
145 1 0.630116 0.127784 0.747613
130 1 0.751658 0.165042 0.702674
138 1 0.873475 0.149091 0.519063
244 1 0.857306 0.473245 0.983567
149 1 0.858375 0.0762069 0.743975
164 1 0.951923 0.0429306 0.548309
173 1 0.782708 0.0007664 0.641553
45 1 0.0955259 0.419945 0.587263
73 1 0.956888 0.398417 0.711233
64 1 0.170882 0.252391 0.585005
23 1 0.341397 0.462258 0.597321
62 1 0.195545 0.347936 0.697196
75 1 0.20707 0.492749 0.639951
125 1 0.285836 0.295333 0.519132
10 1 0.402522 0.346167 0.655698
160 1 0.506295 0.383375 0.579975
170 1 0.500996 0.308585 0.747865
239 1 0.560063 0.430812 0.77139
116 1 0.761743 0.207563 0.571226
163 1 0.59297 0.27772 0.604046
172 1 0.596952 0.471576 0.645221
242 1 0.775598 0.465927 0.761573
126 1 0.830848 0.364375 0.697587
233 1 0.801336 0.340464 0.566172
101 1 0.0392977 0.209216 0.947736
161 1 0.793282 0.267154 0.780622
48 1 0.0985524 0.124461 0.850815
26 1 0.225631 0.167307 0.802362
171 1 0.717338 0.3115 0.892576
39 1 0.312384 0.072944 0.871006
44 1 0.318002 0.269317 0.956477
156 1 0.45107 0.172582 0.789132
131 1 0.832721 0.0923193 0.986113
142 1 0.340523 0.250835 0.824737
251 1 0.382284 0.0501027 0.751149
49 1 0.513464 0.131946 0.903414
47 1 0.640098 0.180281 0.880564
223 1 0.983798 0.497001 0.617969
176 1 0.697653 0.088677 0.961797
37 1 0.347694 0.138043 0.988588
177 1 0.897198 0.204346 0.945709
245 1 0.904796 0.197209 0.811686
30 1 0.152017 0.292565 0.815048
259 1 0.264671 0.479999 0.947689
113 1 0.9708 0.367022 0.912727
153 1 0.0118155 0.28812 0.795467
107 1 0.968528 0.472486 0.826359
41 1 0.316159 0.363525 0.756337
178 1 0.205817 0.345013 0.930427
249 1 0.329439 0.479839 0.82494
151 1 0.830826 0.329627 0.972147
168 1 0.688644 0.414667 0.546755
152 1 0.673499 0.435492 0.844638
40 1 0.0833282 0.348753 0.996484
55 1 0.997585 0.623045 0.0829345
61 1 0.125325 0.609017 0.0415773
187 1 0.169736 0.751478 0.191708
1 1 0.211872 0.631803 0.14091
52 1 0.312445 0.678573 0.068394
230 1 0.678942 0.696398 0.402633
118 1 0.429413 0.608094 0.0424724
181 1 0.489696 0.641521 0.156981
229 1 0.614712 0.613112 0.196319
128 1 0.637967 0.522361 0.0847843
195 1 0.690672 0.729127 0.0237851
206 1 0.663437 0.742325 0.165582
208 1 0.773677 0.539985 0.0751653
158 1 0.919455 0.572361 0.200198
186 1 0.837679 0.804999 0.302099
204 1 0.832237 0.665678 0.13291
68 1 0.0317038 0.722418 0.186184
51 1 0.0974592 0.889809 0.0444492
65 1 0.00410458 0.856438 0.141212
69 1 0.191586 0.798399 0.0474695
189 1 0.165381 0.906673 0.217712
262 1 0.442886 0.922706 0.0190307
59 1 0.3555 0.800425 0.115329
66 1 0.690919 0.949355 0.313082
184 1 0.30011 0.809203 0.236276
199 1 0.288298 0.911226 0.0364792
63 1 0.480484 0.772582 0.156923
190 1 0.535984 0.829842 0.0515647
207 1 0.61427 0.8688 0.217847
179 1 0.772626 0.848302 0.123649
216 1 0.795563 0.911516 0.237207
222 1 0.645364 0.908116 0.0763865
211 1 0.896705 0.785136 0.0787373
60 1 0.252973 0.54739 0.235813
53 1 0.0555389 0.600672 0.324606
57 1 0.147924 0.705239 0.326455
213 1 0.765819 0.948632 0.442891
159 1 0.0468602 0.558712 0.448972
185 1 0.96929 0.77344 0.304312
167 1 0.264377 0.631255 0.344377
87 1 0.366498 0.729565 0.321411
202 1 0.421253 0.607978 0.266089
79 1 0.32072 0.571884 0.457246
91 1 0.500146 0.573787 0.379359
219 1 0.443422 0.648322 0.484676
241 1 0.57205 0.686305 0.319135
157 1 0.631542 0.515551 0.375606
193 1 0.753548 0.59785 0.322637
225 1 0.771298 0.706262 0.241727
197 1 0.720794 0.536924 0.490349
201 1 0.847262 0.607798 0.431626
235 1 0.930317 0.640876 0.31968
70 1 0.0495665 0.898921 0.29208
77 1 0.113505 0.82202 0.397283
71 1 0.220033 0.911084 0.426454
84 1 0.359012 0.753506 0.459517
247 1 0.76728 0.807913 0.41472
180 1 0.274009 0.943624 0.303399
228 1 0.413081 0.940886 0.265073
221 1 0.487524 0.818409 0.288493
198 1 0.598667 0.843767 0.39177
218 1 0.524763 0.944455 0.466109
31 1 0.959506 0.98514 0.110247
114 1 0.925408 0.499507 0.483761
194 1 0.183147 0.991249 0.108882
80 1 0.368533 0.502692 0.181617
231 1 0.543224 0.746409 0.499502
90 1 0.0373878 0.622757 0.655368
238 1 0.14496 0.56962 0.738984
98 1 0.233124 0.617236 0.558346
100 1 0.26394 0.760192 0.576012
72 1 0.367438 0.656418 0.718413
43 1 0.546208 0.592245 0.61822
220 1 0.405955 0.586604 0.613075
243 1 0.569286 0.68146 0.728557
269 2 0.45 0.5 0.5
270 3 0.55 0.5 0.5
209 1 0.724233 0.547851 0.670981
232 1 0.649951 0.646307 0.536315
174 1 0.821037 0.998728 0.851971
253 1 0.843019 0.575009 0.600213
237 1 0.907638 0.681016 0.664595
74 1 0.0555363 0.775919 0.51576
82 1 0.138001 0.812237 0.614241
96 1 0.0988711 0.737891 0.723609
97 1 0.0988777 0.940096 0.65849
92 1 0.339996 0.782199 0.686918
112 1 0.306238 0.910828 0.541857
248 1 0.29206 0.950873 0.689014
227 1 0.557349 0.779074 0.634171
103 1 0.128702 0.994293 0.882195
240 1 0.448982 0.85332 0.651021
267 1 0.486769 0.965717 0.718067
234 1 0.713805 0.904658 0.718133
250 1 0.673599 0.83997 0.611698
260 1 0.739796 0.717283 0.609338
192 1 0.833122 0.729589 0.507011
210 1 0.931925 0.804205 0.577847
214 1 0.955736 0.887266 0.695386
265 1 0.865618 0.936352 0.547245
42 1 0.119081 0.497817 0.966776
50 1 0.0381139 0.68601 0.88813
81 1 0.0700761 0.55405 0.852371
93 1 0.162003 0.707093 0.950288
94 1 0.268116 0.604887 0.788323
102 1 0.280349 0.627344 0.934169
78 1 0.414396 0.702205 0.918586
108 1 0.463433 0.639701 0.806687
175 1 0.463224 0.506665 0.832972
254 1 0.705208 0.657354 0.761882
256 1 0.687993 0.576967 0.878764
261 1 0.595932 0.592976 0.974816
268 1 0.549359 0.726504 0.961277
154 1 0.854291 0.537044 0.850126
212 1 0.844611 0.888992 0.776219
246 1 0.785979 0.639881 0.966296
252 1 0.845487 0.668613 0.790092
83 1 0.0199617 0.819249 0.814166
105 1 0.0316868 0.914117 0.927458
110 1 0.144246 0.906002 0.778444
95 1 0.202588 0.732993 0.811666
89 1 0.278971 0.846873 0.798419
111 1 0.260674 0.956385 0.908972
258 1 0.494296 0.499446 0.96296
169 1 0.495796 0.893128 0.841386
86 1 0.383075 0.839243 0.900719
109 1 0.679148 0.975345 0.891163
257 1 0.714806 0.851065 0.949772
266 1 0.573811 0.780828 0.839264
263 1 0.708048 0.7951 0.81882
264 1 0.88663 0.783366 0.854359
217 1 0.849427 0.854543 0.966625
162 1 0.915311 0.972664 0.976048
183 1 0.927322 0.684897 0.977062
88 1 0.0970172 0.645444 0.536241
85 1 0.432785 0.859431 0.515653
215 1 0.657583 0.945469 0.522781
38 1 0.533597 0.996725 0.93265
137 1 0.6212 0.993142 0.766001
ITEM: TIMESTEP
2000
ITEM: NUMBER OF ATOMS
270
ITEM: BOX BOUNDS pp pp pp
-1.0000000000000000e+01 1.0000000000000000e+01
-1.0000000000000000e+01 1.0000000000000000e+01
-1.0000000000000000e+01 1.0000000000000000e+01
ITEM: ATOMS id type xs ys zs
3 1 0.0167026 0.190358 0.081419
16 1 0.100053 0.10256 0.245877
119 1 0.0655093 0.0688176 0.120678
13 1 0.309313 0.0748363 0.10922
34 1 0.352091 0.180751 0.200741
27 1 0.503949 0.10867 0.126175
135 1 0.503551 0.189643 0.246111
132 1 0.480753 0.19477 0.0209758
5 1 0.685765 0.117647 0.154423
134 1 0.615978 0.0415922 0.064157
191 1 0.678911 0.246315 0.114354
224 1 0.811223 0.099137 0.11877
117 1 0.88854 0.203931 0.134445
143 1 0.868573 0.0143495 0.202126
21 1 0.0709721 0.312287 0.13542
2 1 0.365132 0.467932 0.042325
7 1 0.204955 0.339061 0.174596
155 1 0.346026 0.313498 0.157513
4 1 0.551735 0.399769 0.178956
120 1 0.428292 0.392608 0.236603
127 1 0.409186 0.330795 0.0393266
124 1 0.543132 0.3924 0.0408375
196 1 0.794012 0.497243 0.209005
28 1 0.605726 0.274312 0.00273074
11 1 0.603753 0.282267 0.217894
67 1 0.658254 0.465752 0.248382
6 1 0.981378 0.415983 0.166522
54 1 0.983241 0.483358 0.0460448
144 1 0.854394 0.377032 0.207319
188 1 0.803616 0.30282 0.103761
17 1 0.0429229 0.228466 0.254226
8 1 0.0559347 0.0702798 0.458873
18 1 0.0276078 0.0302293 0.333033
36 1 0.0819225 0.204679 0.475593
99 1 0.18248 0.0329287 0.475428
14 1 0.238037 0.0754792 0.259269
12 1 0.262932 0.111438 0.393931
24 1 0.216241 0.235221 0.264308
25 1 0.388342 0.0968718 0.434663
139 1 0.46988 0.0156109 0.365375
200 1 0.454773 0.217868 0.464317
255 1 0.558415 0.11125 0.340983
140 1 0.571805 0.148432 0.475446
146 1 0.677689 0.0857698 0.288519
122 1 0.744766 0.183643 0.364312
203 1 0.669361 0.239942 0.470899
129 1 0.910441 0.207945 0.267689
148 1 0.820764 0.0812096 0.412764
205 1 0.906367 0.0804849 0.310053
9 1 0.0179218 0.384169 0.376787
123 1 0.0495187 0.470335 0.27249
56 1 0.10413 0.277321 0.365684
141 1 0.109897 0.442312 0.457773
58 1 0.180754 0.439709 0.2594
20 1 0.211213 0.388018 0.379837
22 1 0.323734 0.432004 0.455763
166 1 0.287833 0.252648 0.384195
15 1 0.493912 0.365687 0.445956
32 1 0.415729 0.271645 0.330339
165 1 0.426876 0.451545 0.361084
236 1 0.627714 0.374636 0.429256
147 1 0.688733 0.339723 0.31064
115 1 0.829985 0.306072 0.329556
150 1 0.892804 0.36018 0.447503
114 1 0.925405 0.499502 0.48376
35 1 0.192655 0.0231722 0.61197
104 1 0.0540683 0.154816 0.717707
106 1 0.194609 0.147069 0.667425
46 1 0.336114 0.127836 0.646762
133 1 0.37705 0.0376011 0.552565
226 1 0.389358 0.233865 0.584025
33 1 0.509917 0.0335624 0.591979
121 1 0.52654 0.163604 0.656428
136 1 0.662761 0.07427 0.579813
145 1 0.630113 0.127779 0.747612
130 1 0.751655 0.165037 0.702673
173 1 0.782706 0.000762238 0.641552
116 1 0.761741 0.207559 0.571225
29 1 0.980227 0.0414221 0.679532
138 1 0.873472 0.149087 0.519062
149 1 0.858372 0.076203 0.743975
164 1 0.95192 0.042927 0.548309
19 1 0.0311372 0.291048 0.630401
45 1 0.0955252 0.419941 0.587265