ITEM: TIMESTEP
0
ITEM: NUMBER OF ATOMS
268
ITEM: BOX BOUNDS pp pp pp
-1.0000000000000000e+01 1.0000000000000000e+01
-1.0000000000000000e+01 1.0000000000000000e+01
-1.0000000000000000e+01 1.0000000000000000e+01
ITEM: ATOMS id type xs ys zs
3 1 0.104733 0.231809 0.049628
16 1 0.143585 0.154589 0.244429
119 1 0.133115 0.111327 0.115205
13 1 0.287628 0.107306 0.116343
34 1 0.343316 0.20598 0.180237
27 1 0.460865 0.105796 0.193858
28 1 0.589725 0.202747 0.007811
132 1 0.498476 0.0682315 0.0377725
5 1 0.619572 0.116771 0.151773
11 1 0.633128 0.248945 0.213403
134 1 0.655117 0.0381285 0.0297915
224 1 0.778927 0.166591 0.157045
31 1 0.982416 0.0466985 0.160319
129 1 0.914762 0.194813 0.189657
131 1 0.901703 0.124307 0.0291805
6 1 0.004554 0.468054 0.074544
17 1 0.0586555 0.28843 0.216455
21 1 0.125683 0.396894 0.118773
2 1 0.298919 0.491853 0.077222
7 1 0.259819 0.354912 0.17732
80 1 0.362245 0.42735 0.193391
155 1 0.306313 0.2906 0.060818
4 1 0.567113 0.367941 0.157743
120 1 0.440025 0.313551 0.217598
127 1 0.434748 0.369306 0.073296
67 1 0.642521 0.454371 0.237679
124 1 0.610211 0.400633 0.023143
191 1 0.699466 0.300868 0.0773245
196 1 0.768045 0.47943 0.220554
54 1 0.989226 0.481703 0.024299
117 1 0.968959 0.257416 0.0960625
123 1 0.927272 0.476102 0.244097
144 1 0.842537 0.364029 0.20723
188 1 0.854421 0.340714 0.071274
8 1 0.0643285 0.0680215 0.44899
18 1 0.025057 0.0522625 0.291579
36 1 0.1287 0.201656 0.411288
12 1 0.250878 0.113066 0.373534
14 1 0.247539 0.0355505 0.255353
24 1 0.301347 0.21211 0.301085
25 1 0.37366 0.147797 0.454705
135 1 0.55742 0.176001 0.303741
139 1 0.447001 0.085715 0.352506
200 1 0.519784 0.209239 0.489692
122 1 0.74877 0.157616 0.361727
146 1 0.778819 0.080002 0.257471
203 1 0.660392 0.239697 0.433652
255 1 0.637463 0.088947 0.376474
143 1 0.885129 0.021907 0.289554
205 1 0.895907 0.133141 0.389375
20 1 0.198201 0.357069 0.31623
56 1 0.053917 0.3351 0.350111
141 1 0.131521 0.421642 0.459894
22 1 0.33655 0.48457 0.381447
60 1 0.220118 0.48726 0.306723
166 1 0.315227 0.34162 0.386358
15 1 0.541151 0.382552 0.389711
32 1 0.473313 0.271786 0.347599
165 1 0.47178 0.484474 0.477999
147 1 0.76446 0.284979 0.286476
168 1 0.73609 0.423694 0.485144
236 1 0.68179 0.362535 0.367312
9 1 0.958862 0.446969 0.379499
115 1 0.899149 0.260466 0.343284
150 1 0.952395 0.340099 0.459528
19 1 0.0713905 0.23044 0.670092
29 1 0.0299845 0.003016 0.690285
35 1 0.152386 0.069378 0.60847
76 1 0.035277 0.181526 0.54378
104 1 0.094904 0.12233 0.747117
46 1 0.313866 0.0608665 0.659015
106 1 0.264053 0.200819 0.616034
133 1 0.384481 0.0600745 0.554516
226 1 0.387676 0.228803 0.567949
33 1 0.513579 0.0008645 0.598232
121 1 0.548146 0.149758 0.623839
156 1 0.486908 0.0937435 0.74272
136 1 0.738809 0.0522185 0.591943
140 1 0.620794 0.085272 0.517845
145 1 0.701895 0.134129 0.685251
130 1 0.807073 0.235333 0.721802
138 1 0.946016 0.141445 0.593812
148 1 0.817939 0.13917 0.517216
149 1 0.905042 0.125773 0.718964
164 1 0.984611 0.016666 0.572491
173 1 0.83531 0.008823 0.670859
45 1 0.0957255 0.344042 0.593525
64 1 0.186957 0.271911 0.52337
73 1 0.052426 0.451352 0.676464
23 1 0.358698 0.486593 0.577911
62 1 0.222644 0.329869 0.70214
75 1 0.284624 0.474497 0.687632
125 1 0.307964 0.353845 0.539145
10 1 0.447483 0.343568 0.614777
160 1 0.570099 0.398148 0.553701
170 1 0.526764 0.304447 0.72993
239 1 0.575578 0.432371 0.734068
116 1 0.728073 0.256404 0.547704
163 1 0.618989 0.284382 0.621984
242 1 0.795494 0.482488 0.717152
126 1 0.892114 0.411443 0.630088
233 1 0.849626 0.338512 0.537016
101 1 0.121616 0.220746 0.917635
103 1 0.128097 0.0026675 0.903897
26 1 0.279631 0.189708 0.753812
37 1 0.369596 0.0850165 0.989862
39 1 0.301695 0.044585 0.870723
44 1 0.368761 0.209738 0.907133
48 1 0.206894 0.130874 0.859484
38 1 0.552235 0.065774 0.943419
49 1 0.590721 0.114357 0.831146
142 1 0.418829 0.204764 0.776652
47 1 0.719288 0.211077 0.838729
137 1 0.667945 0.027597 0.768754
176 1 0.780171 0.135322 0.920108
162 1 0.958258 0.0373145 0.996078
174 1 0.890342 0.0804195 0.838692
177 1 0.926128 0.237446 0.932033
245 1 0.982218 0.246411 0.806483
30 1 0.184605 0.302996 0.822658
40 1 0.165774 0.39149 0.923485
113 1 0.0302805 0.418295 0.975993
153 1 0.053213 0.330218 0.788502
41 1 0.343255 0.350782 0.782519
178 1 0.310493 0.32451 0.919895
249 1 0.382732 0.495697 0.797913
259 1 0.315107 0.479511 0.904724
152 1 0.692169 0.423977 0.790482
171 1 0.7172 0.34534 0.889619
151 1 0.894734 0.387352 0.899732
161 1 0.885607 0.344012 0.758673
1 1 0.172061 0.536747 0.18453
55 1 0.0229315 0.690558 0.0533135
61 1 0.112962 0.572942 0.059883
68 1 0.004119 0.745612 0.189997
52 1 0.29174 0.643443 0.0813735
187 1 0.205166 0.676344 0.186853
63 1 0.470156 0.746367 0.159391
118 1 0.49798 0.584892 0.01868
181 1 0.464894 0.618966 0.159646
128 1 0.639876 0.549997 0.030993
195 1 0.72848 0.677798 0.0154905
206 1 0.616681 0.741942 0.10991
208 1 0.773579 0.543555 0.0902925
229 1 0.612549 0.588983 0.167031
158 1 0.906841 0.588559 0.186529
183 1 0.968449 0.713722 0.0206275
204 1 0.812991 0.691872 0.133885
51 1 0.021697 0.867571 0.021721
65 1 0.023655 0.965021 0.127242
69 1 0.162129 0.777559 0.085017
189 1 0.0869515 0.831178 0.205163
194 1 0.163 0.989302 0.186078
59 1 0.350083 0.804239 0.124586
182 1 0.378272 0.967443 0.0899195
184 1 0.292435 0.768106 0.238517
199 1 0.219801 0.898992 0.076939
190 1 0.531712 0.81259 0.0051835
207 1 0.550389 0.883721 0.176076
228 1 0.436691 0.915638 0.237663
179 1 0.707163 0.852838 0.119601
216 1 0.790086 0.906707 0.235108
222 1 0.66029 0.928278 0.0050615
211 1 0.923905 0.802035 0.120965
217 1 0.823012 0.86496 0.0518415
53 1 0.0201725 0.649421 0.333758
57 1 0.123845 0.704388 0.31236
58 1 0.0472525 0.502222 0.251121
159 1 0.067584 0.556477 0.460343
167 1 0.187606 0.599685 0.384385
87 1 0.309295 0.657074 0.347778
202 1 0.397095 0.564844 0.271002
91 1 0.480668 0.592149 0.379153
219 1 0.406893 0.646946 0.48845
221 1 0.451693 0.749562 0.29527
241 1 0.567906 0.656626 0.297832
157 1 0.625586 0.518552 0.362008
193 1 0.766999 0.546564 0.359823
225 1 0.754788 0.695226 0.278596
114 1 0.868403 0.502142 0.45966
201 1 0.843981 0.665491 0.401095
235 1 0.944363 0.633807 0.311332
70 1 0.0177465 0.927736 0.341178
77 1 0.0864445 0.826459 0.39286
99 1 0.195041 0.977167 0.486727
71 1 0.209588 0.865403 0.402533
84 1 0.294957 0.764727 0.432374
85 1 0.388816 0.870659 0.491295
180 1 0.263717 0.92149 0.283207
198 1 0.504892 0.83395 0.38078
218 1 0.517278 0.960041 0.473632
66 1 0.640969 0.890469 0.274964
213 1 0.78685 0.994457 0.368441
230 1 0.648115 0.756625 0.366056
247 1 0.766101 0.869092 0.437632
185 1 0.948655 0.769072 0.264141
186 1 0.832192 0.803741 0.31832
265 1 0.891463 0.950852 0.487744
88 1 0.0969 0.703669 0.507406
90 1 0.012906 0.654974 0.602697
238 1 0.128877 0.567272 0.626283
79 1 0.305153 0.578126 0.500997
98 1 0.267733 0.646888 0.640823
100 1 0.218223 0.73952 0.551687
43 1 0.547511 0.588705 0.557387
72 1 0.41116 0.664845 0.726556
220 1 0.435971 0.572813 0.645628
243 1 0.597897 0.631915 0.707515
172 1 0.645994 0.511574 0.621204
197 1 0.732124 0.566632 0.515117
209 1 0.787509 0.583723 0.648581
232 1 0.659926 0.682137 0.507705
254 1 0.752279 0.664118 0.748607
223 1 0.964917 0.52731 0.571072
253 1 0.897512 0.645388 0.559422
74 1 0.004754 0.835554 0.52122
82 1 0.100069 0.862146 0.643247
96 1 0.0964225 0.752675 0.714484
97 1 0.117393 0.973118 0.729119
92 1 0.365591 0.792593 0.687759
112 1 0.226383 0.864482 0.589704
248 1 0.268386 0.95921 0.696018
227 1 0.520028 0.760195 0.65639
231 1 0.498591 0.79048 0.517173
240 1 0.407691 0.900216 0.620476
267 1 0.556427 0.915911 0.661458
215 1 0.679048 0.96233 0.501182
234 1 0.750179 0.942166 0.667327
250 1 0.663375 0.829248 0.60058
260 1 0.794799 0.801583 0.683618
192 1 0.800764 0.77714 0.540347
210 1 0.949881 0.832079 0.547077
214 1 0.944318 0.916654 0.703788
237 1 0.911376 0.774201 0.720223
42 1 0.186252 0.558897 0.895062
50 1 0.061507 0.728524 0.95275
81 1 0.102525 0.626464 0.779419
93 1 0.188862 0.710056 0.942119
107 1 0.0364355 0.5026 0.829943
94 1 0.259917 0.650154 0.775699
102 1 0.340477 0.638416 0.92279
78 1 0.464726 0.733854 0.924199
108 1 0.500958 0.655369 0.827193
175 1 0.520665 0.515309 0.838279
258 1 0.554947 0.505386 0.972821
256 1 0.738422 0.557757 0.870023
261 1 0.668722 0.609859 0.975319
268 1 0.624341 0.720992 0.903674
154 1 0.89721 0.531147 0.795977
244 1 0.849206 0.549635 0.943811
246 1 0.854033 0.683513 0.968608
252 1 0.889204 0.681174 0.823569
83 1 0.006367 0.814072 0.851233
95 1 0.197804 0.796239 0.821433
105 1 0.045641 0.960797 0.958846
110 1 0.161052 0.939754 0.863883
89 1 0.297712 0.870823 0.784278
111 1 0.306542 0.953887 0.970897
86 1 0.480009 0.858985 0.852435
251 1 0.440606 0.968465 0.769956
262 1 0.454859 0.924268 0.97547
109 1 0.684898 0.942647 0.894114
169 1 0.622367 0.898248 0.771309
257 1 0.746737 0.793741 0.974113
263 1 0.797143 0.838068 0.843559
266 1 0.649823 0.754921 0.785042
212 1 0.830145 0.960765 0.782891
264 1 0.924682 0.838747 0.925033
ITEM: TIMESTEP
78
ITEM: NUMBER OF ATOMS
268
ITEM: BOX BOUNDS pp pp pp
-1.0000000000000000e+01 1.0000000000000000e+01
-1.0000000000000000e+01 1.0000000000000000e+01
-1.0000000000000000e+01 1.0000000000000000e+01
ITEM: ATOMS id type xs ys zs
3 1 0.105795 0.208267 0.0596492
16 1 0.110899 0.11181 0.248941
119 1 0.0830367 0.0831247 0.119043
13 1 0.297634 0.0751693 0.13585
34 1 0.391845 0.261601 0.188134
27 1 0.433904 0.133645 0.179596
28 1 0.591487 0.15679 0.0694828
132 1 0.464518 0.0926882 0.0457649
5 1 0.624861 0.157687 0.202751
11 1 0.659699 0.292852 0.19684
140 1 0.587655 0.107306 0.469466
224 1 0.798406 0.228585 0.101992
31 1 0.943887 0.0597226 0.111817
129 1 0.939978 0.191946 0.19136
131 1 0.864802 0.147889 0.0125253
6 1 0.0371216 0.395927 0.134378
17 1 0.0713228 0.239488 0.231401
21 1 0.159766 0.336132 0.121888
150 1 0.939275 0.289036 0.43367
7 1 0.275414 0.442975 0.14041
80 1 0.37329 0.46148 0.237568
155 1 0.363303 0.337151 0.08299
4 1 0.580358 0.400792 0.181873
120 1 0.467109 0.358987 0.245449
127 1 0.461686 0.432451 0.0774959
67 1 0.649752 0.494538 0.251346
124 1 0.620746 0.414352 0.0414965
191 1 0.673467 0.273354 0.049541
54 1 0.00424179 0.474686 0.0303064
115 1 0.882015 0.214976 0.327917
117 1 0.979123 0.280586 0.0848093
123 1 0.985342 0.457159 0.247078
144 1 0.857294 0.400801 0.213203
188 1 0.859871 0.356609 0.0871778
8 1 0.0613585 0.0673163 0.467693
18 1 0.0370213 0.0380247 0.336436
36 1 0.143347 0.230927 0.442819
12 1 0.239593 0.134146 0.414253
14 1 0.243682 0.103361 0.274129
24 1 0.289552 0.242421 0.271942
25 1 0.369191 0.138856 0.461394
135 1 0.514228 0.152099 0.294176
139 1 0.468421 0.0696163 0.399885
200 1 0.570426 0.239332 0.485612
122 1 0.755358 0.158243 0.379465
146 1 0.767794 0.14242 0.215796
203 1 0.699468 0.264665 0.439686
255 1 0.646427 0.0777137 0.341333
143 1 0.851387 0.0308894 0.219136
205 1 0.906791 0.0690182 0.333856
20 1 0.208842 0.357638 0.266406
56 1 0.103322 0.31371 0.343411
141 1 0.11536 0.448932 0.453566
22 1 0.310212 0.421498 0.352668
9 1 0.994994 0.405626 0.379484
166 1 0.364104 0.264243 0.3842
15 1 0.552816 0.402911 0.426266
32 1 0.495726 0.278467 0.356438
165 1 0.429292 0.470025 0.418542
147 1 0.780348 0.306079 0.270613
168 1 0.770968 0.440363 0.464655
236 1 0.70405 0.379945 0.360512
37 1 0.336909 0.13168 0.00295779
19 1 0.0773736 0.195138 0.639574
162 1 0.903242 -0.00114229 0.971717
35 1 0.189004 0.115795 0.640763
76 1 0.0218302 0.198481 0.506613
104 1 0.0144226 0.115516 0.741643
46 1 0.358616 0.0910887 0.697824
106 1 0.290948 0.221144 0.633156
133 1 0.366317 0.0381723 0.561953
226 1 0.406486 0.231948 0.559886
33 1 0.503274 0.0300916 0.587085
121 1 0.501886 0.161282 0.633005
156 1 0.500866 0.185292 0.771694
136 1 0.68296 0.0539025 0.565783
251 1 0.456488 0.0584998 0.817696
145 1 0.654762 0.150219 0.664667
130 1 0.790819 0.207742 0.71839
138 1 0.907889 0.134946 0.585147
244 1 0.871545 0.47124 0.988478
149 1 0.870896 0.096599 0.724206
164 1 0.980763 0.0219895 0.565492
151 1 0.842282 0.350902 0.907021
45 1 0.145994 0.412991 0.581946
64 1 0.196766 0.290393 0.54986
73 1 0.0442657 0.41759 0.68842
23 1 0.389671 0.468488 0.554598
62 1 0.286694 0.335042 0.706878
75 1 0.269857 0.451883 0.633074
125 1 0.312883 0.344321 0.490242
10 1 0.477484 0.356958 0.566547
160 1 0.644372 0.407082 0.538924
170 1 0.521194 0.332271 0.701121
239 1 0.584253 0.445073 0.746834
116 1 0.775069 0.247559 0.568393
163 1 0.634385 0.281414 0.611735
242 1 0.817518 0.452906 0.753982
126 1 0.91255 0.406099 0.641469
233 1 0.855452 0.347776 0.527538
101 1 0.0997105 0.224153 0.917652
171 1 0.707877 0.325325 0.915194
26 1 0.247744 0.144433 0.790468
161 1 0.869194 0.311708 0.767209
39 1 0.328472 0.0633534 0.883007
44 1 0.346397 0.264585 0.967838
48 1 0.120323 0.106291 0.839406
38 1 0.519515 0.0157616 0.936078
49 1 0.629427 0.126654 0.797638
142 1 0.379063 0.226422 0.833539
47 1 0.726661 0.207108 0.845715
152 1 0.695878 0.437559 0.826328
176 1 0.761478 0.106123 0.931745
107 1 0.00362665 0.467923 0.820365
174 1 0.82876 0.0151186 0.838363
177 1 0.935537 0.253239 0.949344
245 1 0.9856 0.243295 0.809071
30 1 0.203137 0.279797 0.802292
40 1 0.152425 0.367295 0.978202
113 1 0.0225028 0.381444 0.924683
153 1 0.0849942 0.29673 0.732933
41 1 0.399735 0.347613 0.772831
178 1 0.264125 0.354916 0.901214
249 1 0.357073 0.475688 0.810828
134 1 0.650738 0.0543003 1.00315
99 1 0.187454 0.0585087 0.512903
148 1 0.793521 0.107533 0.504193
1 1 0.197717 0.575291 0.155019
55 1 0.993506 0.633444 0.0948769
61 1 0.116661 0.585013 0.0488771
68 1 0.0303569 0.749469 0.164797
52 1 0.2943 0.656324 0.0730249
187 1 0.168453 0.709547 0.19609
63 1 0.47774 0.773954 0.136858
118 1 0.453869 0.610363 0.0141695
181 1 0.483349 0.639249 0.144051
128 1 0.67155 0.542604 0.0743831
195 1 0.710272 0.72171 0.0291919
206 1 0.650359 0.761177 0.160472
208 1 0.804556 0.563817 0.0735167
229 1 0.611494 0.618171 0.179586
158 1 0.920318 0.582313 0.20514
114 1 0.892135 0.510591 0.425802
204 1 0.821986 0.701827 0.134892
51 1 0.0707846 0.897791 0.0779178
65 1 0.968333 0.916198 0.169791
69 1 0.165346 0.794743 0.0703322
189 1 0.185921 0.90871 0.230026
194 1 0.183021 0.98103 0.115367
59 1 0.343103 0.783514 0.105022
182 1 0.386832 0.966204 0.103468
184 1 0.274751 0.795523 0.220721
199 1 0.274926 0.896656 0.0438852
190 1 0.550194 0.827194 0.0266502
207 1 0.568866 0.896805 0.202078
228 1 0.402184 0.908316 0.229744
179 1 0.743966 0.871649 0.125663
216 1 0.77284 0.923522 0.243793
222 1 0.634797 0.929319 0.0720958
211 1 0.910218 0.80017 0.0843389
217 1 0.830168 0.889429 0.0149256
53 1 0.0439066 0.592386 0.338474
57 1 0.118265 0.706973 0.324647
58 1 0.134899 0.500655 0.258002
159 1 0.0479914 0.560758 0.467957
167 1 0.22798 0.6633 0.392299
87 1 0.339423 0.712194 0.308764
202 1 0.404106 0.59727 0.249306
91 1 0.470126 0.592344 0.369712
219 1 0.417029 0.665526 0.47073
221 1 0.464484 0.777448 0.281809
241 1 0.572912 0.675299 0.305746
157 1 0.604934 0.530502 0.376166
193 1 0.774938 0.602797 0.325234
225 1 0.748104 0.722862 0.261852
215 1 0.648287 0.931106 0.496956
201 1 0.81623 0.652499 0.469464
235 1 0.916673 0.649554 0.329326
70 1 0.0567202 0.911897 0.287627
77 1 0.110452 0.829731 0.388868
2 1 0.349926 0.521967 0.044083
71 1 0.238211 0.883176 0.408719
84 1 0.31895 0.777111 0.457957
60 1 0.211395 0.510324 0.37981
180 1 0.288067 0.96478 0.30205
198 1 0.54809 0.845141 0.373131
218 1 0.504896 0.946642 0.459351
66 1 0.653133 0.939918 0.315644
213 1 0.836695 0.996221 0.431619
230 1 0.659948 0.762928 0.379973
247 1 0.761606 0.87046 0.427544
185 1 0.966046 0.781825 0.289605
186 1 0.829369 0.820873 0.309587
79 1 0.294796 0.57255 0.492213
197 1 0.694476 0.571548 0.473642
196 1 0.786643 0.513385 0.212513
88 1 0.108267 0.664333 0.524937
90 1 0.0402574 0.633803 0.642045
238 1 0.127707 0.541803 0.699917
259 1 0.29124 0.509926 0.925491
98 1 0.224777 0.628735 0.591034
100 1 0.262279 0.758348 0.582471
43 1 0.583052 0.616706 0.596228
72 1 0.386802 0.643095 0.693008
220 1 0.450195 0.595206 0.584598
243 1 0.575239 0.682774 0.718096
263 1 0.827807 0.797008 0.853948
103 1 0.139326 0.980798 0.892963
209 1 0.759361 0.545608 0.670765
212 1 0.831336 0.888059 0.748737
254 1 0.730539 0.653089 0.749924
223 1 0.948432 0.521387 0.565615
253 1 0.85061 0.604494 0.590771
74 1 0.0620307 0.795089 0.514595
82 1 0.153086 0.830501 0.609392
96 1 0.11937 0.730112 0.705386
97 1 0.166888 0.960315 0.671395
92 1 0.339567 0.769123 0.688749
112 1 0.254791 0.940546 0.534371
248 1 0.308454 0.95583 0.710779
227 1 0.533592 0.793591 0.649885
109 1 0.62071 0.923414 0.890826
240 1 0.413005 0.876135 0.652202
267 1 0.501789 0.968019 0.719574
266 1 0.646072 0.764731 0.819771
234 1 0.640463 0.966026 0.681101
250 1 0.652749 0.844323 0.610725
260 1 0.763662 0.783613 0.67601
192 1 0.802969 0.779358 0.531389
210 1 0.938858 0.812889 0.580459
214 1 0.960955 0.871307 0.707083
237 1 0.914103 0.6966 0.663773
42 1 0.157909 0.505436 0.943887
50 1 0.0606101 0.68763 0.883247
81 1 0.0994586 0.563829 0.835685
93 1 0.160664 0.695115 0.976065
257 1 0.722689 0.830745 0.943029
94 1 0.282231 0.562782 0.72447
102 1 0.285892 0.650792 0.918124
78 1 0.423071 0.697925 0.902523
108 1 0.473637 0.634877 0.792475
175 1 0.489194 0.506868 0.825337
264 1 0.953066 0.82578 0.908528
256 1 0.719419 0.571827 0.865766
261 1 0.630362 0.606432 0.960814
268 1 0.56527 0.727475 0.930182
154 1 0.882128 0.528866 0.84917
265 1 0.879988 0.94084 0.549711
246 1 0.818765 0.646811 0.955651
252 1 0.862203 0.671735 0.793499
83 1 0.0460357 0.806444 0.794316
95 1 0.219324 0.677395 0.794275
105 1 0.0253166 0.935199 0.958134
110 1 0.153451 0.892196 0.792171
89 1 0.277173 0.820022 0.802629
111 1 0.280185 0.936714 0.913404
86 1 0.408012 0.832889 0.873825
169 1 0.526926 0.854548 0.799857
262 1 0.449238 0.909487 0.983825
232 1 0.650129 0.718446 0.512908
183 1 0.946388 0.69948 0.979145
85 1 0.40206 0.878044 0.518478
29 1 0.0308836 0.988366 0.683464
173 1 0.803912 0.992564 0.651975
172 1 0.638872 0.502043 0.633963
258 1 0.52726 0.507247 0.957287
137 1 0.690061 0.999368 0.80388
231 1 0.509391 0.765948 0.504812
ITEM: TIMESTEP
473
ITEM: NUMBER OF ATOMS
268
ITEM: BOX BOUNDS pp pp pp
-1.0000000000000000e+01 1.0000000000000000e+01
-1.0000000000000000e+01 1.0000000000000000e+01
-1.0000000000000000e+01 1.0000000000000000e+01
ITEM: ATOMS id type xs ys zs
3 1 0.030615 0.143979 0.056908
16 1 0.111225 0.0907257 0.248035
119 1 0.0917976 0.0377275 0.123448
17 1 0.0297648 0.197993 0.252985
13 1 0.322286 0.0699043 0.141247
37 1 0.287901 0.132696 0.0222187
27 1 0.450282 0.130008 0.155087
28 1 0.598018 0.199486 0.0483074
132 1 0.474249 0.155176 0.0236389
5 1 0.631963 0.187927 0.180668
224 1 0.759597 0.301066 0.0840743
146 1 0.744472 0.113072 0.212793
60 1 0.182754 0.496913 0.37519
31 1 0.915441 0.0687094 0.0515343
129 1 0.853381 0.202645 0.197784
131 1 0.851261 0.198472 0.0332744
143 1 0.881572 0.0214167 0.182001
6 1 0.0618639 0.374416 0.142418
21 1 0.205744 0.352108 0.124736
54 1 0.0173108 0.464678 0.0503864
34 1 0.410742 0.259528 0.195108
7 1 0.25759 0.478446 0.143988
80 1 0.368203 0.47098 0.231101
155 1 0.347924 0.319148 0.0905542
4 1 0.599635 0.408189 0.193901
120 1 0.48252 0.369514 0.254513
127 1 0.434524 0.425389 0.0968831
11 1 0.689101 0.306798 0.197974
124 1 0.577664 0.428015 0.0580586
207 1 0.523916 0.00898525 0.1951
117 1 0.988779 0.256246 0.131673
123 1 0.00997758 0.427438 0.258201
144 1 0.87006 0.422857 0.24905
188 1 0.877716 0.363703 0.119314
8 1 0.0769254 0.0546276 0.472176
18 1 0.0514767 0.0169331 0.34261
36 1 0.164357 0.210334 0.436604
12 1 0.265734 0.102002 0.411057
14 1 0.250876 0.10014 0.263167
24 1 0.315085 0.223321 0.280782
25 1 0.391863 0.112081 0.455411
140 1 0.592049 0.0975094 0.47603
135 1 0.539714 0.15912 0.280827
139 1 0.478204 0.0369549 0.375429
200 1 0.592671 0.23219 0.476303
122 1 0.766202 0.164438 0.361634
255 1 0.642748 0.0905035 0.344984
115 1 0.91252 0.178891 0.332521
205 1 0.922645 0.0410741 0.316489
56 1 0.118196 0.265732 0.324603
141 1 0.0938882 0.435911 0.453116
20 1 0.220722 0.312937 0.256358
22 1 0.27381 0.416343 0.31961
166 1 0.391211 0.246625 0.395544
125 1 0.330354 0.365554 0.430861
15 1 0.57164 0.400771 0.434181
32 1 0.515952 0.274246 0.356946
165 1 0.447998 0.457219 0.377478
9 1 0.0330811 0.352153 0.370766
203 1 0.723666 0.256007 0.452083
147 1 0.793616 0.311422 0.283183
168 1 0.791026 0.435964 0.487491
236 1 0.719914 0.375728 0.385476
150 1 0.954021 0.265757 0.442036
114 1 0.867338 0.495435 0.380812
244 1 0.882364 0.462378 0.024189
134 1 0.651634 0.0834556 0.00665919
148 1 0.811322 0.08032 0.460773
191 1 0.649141 0.322683 0.00465571
19 1 0.0954035 0.181605 0.64981
35 1 0.22494 0.136827 0.629462
76 1 0.0427552 0.184301 0.51631
104 1 0.0288649 0.101728 0.740829
99 1 0.203426 0.0559013 0.522187
46 1 0.324081 0.0649746 0.704889
106 1 0.296159 0.246858 0.596592
133 1 0.388832 0.0368961 0.575222
226 1 0.421183 0.245491 0.547117
33 1 0.52428 0.057741 0.592551
121 1 0.504292 0.182874 0.637886
162 1 0.83624 0.00454676 0.929751
136 1 0.710256 0.0618853 0.557143
145 1 0.699334 0.177141 0.647718
130 1 0.821837 0.213692 0.732062
116 1 0.807665 0.231317 0.563416
138 1 0.908365 0.125552 0.557408
149 1 0.888864 0.0964093 0.704313
164 1 0.988077 0.00477417 0.5584
45 1 0.148007 0.400428 0.573327
64 1 0.226767 0.308967 0.504063
73 1 0.0556616 0.401021 0.69194
153 1 0.0971682 0.282153 0.7434
23 1 0.372399 0.484081 0.525572
62 1 0.291779 0.338378 0.690456
75 1 0.27009 0.457268 0.620015
10 1 0.470812 0.379183 0.54422
170 1 0.514465 0.361072 0.677565
239 1 0.583748 0.457479 0.743278
160 1 0.655873 0.401603 0.552754
163 1 0.610495 0.271787 0.607752
126 1 0.921868 0.400235 0.65353
233 1 0.878191 0.34232 0.535931
101 1 0.0894203 0.192384 0.944624
48 1 0.130059 0.0994992 0.845489
26 1 0.263969 0.141062 0.811118
39 1 0.321748 0.0571265 0.915762
142 1 0.391732 0.233926 0.836934
156 1 0.49911 0.16821 0.773634
251 1 0.431861 0.0540539 0.800346
38 1 0.473318 0.0406795 0.946564
49 1 0.640551 0.157813 0.773966
47 1 0.741272 0.211811 0.844989
176 1 0.770398 0.126448 0.948843
174 1 0.808391 0.0127433 0.794773
245 1 0.00344921 0.232125 0.830436
107 1 0.0184307 0.451223 0.824017
40 1 0.155184 0.305993 0.993176
113 1 0.0623652 0.395493 0.946275
44 1 0.366161 0.237644 0.981914
30 1 0.223971 0.278974 0.793467
41 1 0.403309 0.347709 0.759462
178 1 0.262325 0.326407 0.918863
249 1 0.366287 0.467776 0.812558
171 1 0.724741 0.338798 0.891785
152 1 0.702666 0.446765 0.808845
137 1 0.671143 0.0313997 0.789965
151 1 0.855479 0.375617 0.908819
242 1 0.817588 0.467275 0.731675
161 1 0.903819 0.316297 0.779001
177 1 0.94811 0.286545 0.965794
154 1 0.89007 0.492497 0.843897
259 1 0.285253 0.461024 0.92225
1 1 0.169008 0.581413 0.163696
61 1 0.0864961 0.585899 0.0580452
68 1 0.05484 0.761805 0.169681
187 1 0.158655 0.703557 0.228849
52 1 0.268729 0.649648 0.0685771
2 1 0.338114 0.50728 0.0361587
118 1 0.429863 0.604792 0.0172828
181 1 0.473699 0.643579 0.140034
202 1 0.410888 0.598883 0.252471
128 1 0.662473 0.544197 0.0731985
67 1 0.658033 0.520359 0.245222
229 1 0.605875 0.636107 0.172757
196 1 0.795923 0.536942 0.216798
55 1 0.982245 0.66146 0.119313
208 1 0.799598 0.563702 0.0778577
158 1 0.948553 0.588715 0.236396
204 1 0.84129 0.695526 0.129805
51 1 0.029455 0.923993 0.0785844
69 1 0.116381 0.816646 0.0572003
189 1 0.206112 0.89926 0.252727
262 1 0.458034 0.922463 0.0207624
59 1 0.31868 0.775393 0.101608
182 1 0.382066 0.93763 0.135373
184 1 0.264996 0.779334 0.222387
199 1 0.238672 0.876939 0.0517174
63 1 0.452227 0.776768 0.141774
190 1 0.554641 0.807655 0.0574013
195 1 0.734023 0.701948 0.0018102
228 1 0.420682 0.937985 0.279508
206 1 0.673514 0.752055 0.122112
179 1 0.712259 0.88972 0.0965274
216 1 0.749413 0.959166 0.207231
222 1 0.589393 0.967675 0.0795498
65 1 0.921606 0.890779 0.153136
211 1 0.844884 0.822326 0.0617784
194 1 0.211186 0.971813 0.139849
53 1 0.0410016 0.625096 0.38944
57 1 0.152183 0.704565 0.362324
58 1 0.0896721 0.542076 0.279195
159 1 0.984557 0.513975 0.453691
167 1 0.278119 0.682516 0.405028
87 1 0.355737 0.715172 0.300209
186 1 0.824004 0.867976 0.283906
79 1 0.265553 0.561471 0.462367
91 1 0.494436 0.598089 0.367235
219 1 0.444938 0.685859 0.467574
241 1 0.565407 0.693502 0.295812
157 1 0.620504 0.526005 0.375609
193 1 0.80511 0.636337 0.32156
225 1 0.75856 0.749105 0.250426
197 1 0.727143 0.594958 0.429628
213 1 0.846036 0.955848 0.404665
201 1 0.872346 0.701394 0.483802
235 1 0.932323 0.698522 0.347638
70 1 0.0799293 0.890151 0.312598
77 1 0.129787 0.823846 0.415983
71 1 0.252133 0.874457 0.436563
84 1 0.329294 0.77347 0.495344
180 1 0.292723 0.964707 0.334879
221 1 0.466523 0.799614 0.277794
198 1 0.574708 0.871126 0.349135
218 1 0.522167 0.928624 0.465714
185 1 0.971291 0.815999 0.269214
66 1 0.629598 0.974366 0.27802
230 1 0.666255 0.761692 0.359258
247 1 0.733492 0.87131 0.435167
232 1 0.661258 0.699022 0.493381
231 1 0.53997 0.777321 0.498044
88 1 0.0800985 0.647309 0.526483
90 1 0.0203031 0.616746 0.644819
238 1 0.127679 0.531031 0.692012
96 1 0.102616 0.710175 0.724017
98 1 0.201828 0.604915 0.575548
72 1 0.390499 0.631566 0.691386
94 1 0.293702 0.544204 0.725952
43 1 0.580463 0.623811 0.594302
220 1 0.446377 0.59814 0.570637
243 1 0.581025 0.696788 0.725963
209 1 0.758331 0.566145 0.660996
254 1 0.721854 0.668823 0.741472
172 1 0.639615 0.510525 0.63289
215 1 0.650184 0.93535 0.518291
223 1 0.943003 0.51993 0.58136
253 1 0.824386 0.577274 0.543324
237 1 0.894506 0.682758 0.660772
74 1 0.0681605 0.780235 0.529505
82 1 0.149553 0.793402 0.630589
97 1 0.162001 0.916481 0.675286
29 1 0.0360681 0.974108 0.679488
100 1 0.25927 0.727546 0.600813
92 1 0.323547 0.747584 0.717564
112 1 0.252536 0.939545 0.555725
248 1 0.299389 0.933382 0.719041
227 1 0.536145 0.791866 0.635345
240 1 0.415344 0.853039 0.671912
267 1 0.485898 0.942584 0.747655
85 1 0.404216 0.89595 0.543924
42 1 0.157792 0.514915 0.940032
234 1 0.595783 0.985522 0.687983
250 1 0.642534 0.870547 0.636397
260 1 0.75448 0.793027 0.667753
212 1 0.83305 0.887045 0.73376
192 1 0.767446 0.778072 0.528675
210 1 0.943386 0.795557 0.577419
214 1 0.960624 0.859364 0.703485
265 1 0.891126 0.914968 0.528814
173 1 0.815715 0.986344 0.62093
175 1 0.491739 0.515425 0.827241
50 1 0.0460739 0.679458 0.89341
81 1 0.0968914 0.565375 0.831287
93 1 0.144036 0.696912 0.985751
257 1 0.725844 0.801266 0.907503
102 1 0.272614 0.637328 0.91715
95 1 0.223643 0.653941 0.784384
78 1 0.412696 0.695423 0.908207
108 1 0.474773 0.642191 0.793629
264 1 0.928964 0.821938 0.943352
268 1 0.550785 0.722102 0.948615
258 1 0.518556 0.520321 0.960117
256 1 0.714096 0.577404 0.856405
261 1 0.628407 0.609274 0.956477
217 1 0.727849 0.923032 0.962266
246 1 0.842943 0.601953 0.919204
252 1 0.851899 0.685414 0.79689
183 1 0.9428 0.683809 0.979587
103 1 0.113528 0.975433 0.897327
83 1 0.0274672 0.793858 0.809568
105 1 0.98159 0.954215 0.956037
110 1 0.137562 0.875337 0.807024
89 1 0.285981 0.853643 0.832884
111 1 0.248681 0.943373 0.933975
86 1 0.40433 0.836371 0.913312
169 1 0.525491 0.884126 0.857048
263 1 0.840979 0.807153 0.843577
109 1 0.61151 0.987655 0.902822
266 1 0.608329 0.779934 0.840695
ITEM: TIMESTEP
1000
ITEM: NUMBER OF ATOMS
268
ITEM: BOX BOUNDS pp pp pp
-1.0000000000000000e+01 1.0000000000000000e+01
-1.0000000000000000e+01 1.0000000000000000e+01
-1.0000000000000000e+01 1.0000000000000000e+01
ITEM: ATOMS id type xs ys zs
3 1 0.030615 0.143979 0.056908
16 1 0.111225 0.0907257 0.248035
119 1 0.0917976 0.0377275 0.123448
13 1 0.322286 0.0699043 0.141247
37 1 0.287901 0.132696 0.0222187
27 1 0.450282 0.130008 0.155087
28 1 0.598018 0.199486 0.0483074
132 1 0.474249 0.155176 0.0236389
207 1 0.523916 0.00898525 0.1951
5 1 0.631963 0.187927 0.180668
146 1 0.744472 0.113072 0.212793
134 1 0.651634 0.0834556 0.00665919
31 1 0.915441 0.0687094 0.0515343
129 1 0.853381 0.202645 0.197784
131 1 0.851261 0.198472 0.0332744
143 1 0.881572 0.0214167 0.182001
6 1 0.0618639 0.374416 0.142418
54 1 0.0173108 0.464678 0.0503864
21 1 0.205744 0.352108 0.124736
7 1 0.25759 0.478446 0.143988
80 1 0.368203 0.47098 0.231101
155 1 0.347924 0.319148 0.0905542
34 1 0.410742 0.259528 0.195108
4 1 0.599635 0.408189 0.193901
127 1 0.434524 0.425389 0.0968831
124 1 0.577664 0.428015 0.0580586
224 1 0.759597 0.301066 0.0840743
11 1 0.689101 0.306798 0.197974
191 1 0.649141 0.322683 0.00465571
117 1 0.988779 0.256246 0.131673
144 1 0.87006 0.422857 0.24905
188 1 0.877716 0.363703 0.119314
244 1 0.882364 0.462378 0.024189
17 1 0.0297648 0.197993 0.252985
8 1 0.0769254 0.0546276 0.472176
18 1 0.0514767 0.0169331 0.34261
36 1 0.164357 0.210334 0.436604
12 1 0.265734 0.102002 0.411057
14 1 0.250876 0.10014 0.263167
24 1 0.315085 0.223321 0.280782
25 1 0.391863 0.112081 0.455411
166 1 0.391211 0.246625 0.395544
140 1 0.592049 0.0975094 0.47603
135 1 0.539714 0.15912 0.280827
139 1 0.478204 0.0369549 0.375429
200 1 0.592671 0.23219 0.476303
122 1 0.766202 0.164438 0.361634
255 1 0.642748 0.0905035 0.344984
115 1 0.91252 0.178891 0.332521
205 1 0.922645 0.0410741 0.316489
148 1 0.811322 0.08032 0.460773
60 1 0.182754 0.496913 0.37519
123 1 0.00997758 0.427438 0.258201
56 1 0.118196 0.265732 0.324603
141 1 0.0938882 0.435911 0.453116
9 1 0.0330811 0.352153 0.370766
20 1 0.220722 0.312937 0.256358
22 1 0.27381 0.416343 0.31961
125 1 0.330354 0.365554 0.430861
120 1 0.48252 0.369514 0.254513
15 1 0.57164 0.400771 0.434181
32 1 0.515952 0.274246 0.356946
165 1 0.447998 0.457219 0.377478
203 1 0.723666 0.256007 0.452083
147 1 0.793616 0.311422 0.283183
168 1 0.791026 0.435964 0.487491
236 1 0.719914 0.375728 0.385476
150 1 0.954021 0.265757 0.442036
114 1 0.867338 0.495435 0.380812
19 1 0.0954035 0.181605 0.64981
76 1 0.0427552 0.184301 0.51631
104 1 0.0288649 0.101728 0.740829
35 1 0.22494 0.136827 0.629462
99 1 0.203426 0.0559013 0.522187
46 1 0.324081 0.0649746 0.704889
106 1 0.296159 0.246858 0.596592
133 1 0.388832 0.0368961 0.575222
226 1 0.421183 0.245491 0.547117
33 1 0.52428 0.057741 0.592551
121 1 0.504292 0.182874 0.637886
136 1 0.710256 0.0618853 0.557143
145 1 0.699334 0.177141 0.647718
130 1 0.821837 0.213692 0.732062
116 1 0.807665 0.231317 0.563416
138 1 0.908365 0.125552 0.557408
149 1 0.888864 0.0964093 0.704313